TITLE="fun3d_case_title"
VARIABLES="Iteration" "R_1" "R_2" "R_3" "R_4" "R_5" "C_L" "C_D" "C_M_x" "C_M_y" "C_M_z" "Wall Time" "C_x" "C_y" "C_z" "C_Lp" "C_Dp" "C_Lv" "C_Dv" "C_M_xp" "C_M_yp" "C_M_zp" "C_M_xv" "C_M_yv" "C_M_zv" "C_xp" "C_yp" "C_zp" "C_xv" "C_yv" "C_zv"
ZONE  I=100 F=POINT
1  0.3185143352E-03  0.1590389112E-03  0.1904454311E-14  0.8334876156E-05  0.8361001300E-03 -0.6209423439E-02  0.9123943606E-01  0.5958413771E-01 -0.6062709376E+00  0.3557798463E+00  0.1025446250E+02  0.9143937170E-01  0.7898608123E-02 -0.1425810507E-02 -0.6209423439E-02  0.9123943606E-01  0.0000000000E+00  0.0000000000E+00  0.5958413771E-01 -0.6062709376E+00  0.3557798463E+00  0.0000000000E+00  0.0000000000E+00  0.0000000000E+00  0.9143937170E-01  0.7898608123E-02 -0.1425810507E-02  0.0000000000E+00  0.0000000000E+00  0.0000000000E+00
2  0.2761724924E-03  0.1254757595E-03  0.9178000728E-04  0.9363641152E-05  0.7268440241E-03 -0.1297976860E-01  0.1945459035E+00  0.5189018355E-01 -0.1292612649E+01  0.7201848921E+00  0.1265270000E+02  0.1949585937E+00  0.6255991832E-02 -0.2780234386E-02 -0.1297976860E-01  0.1945459035E+00  0.0000000000E+00  0.0000000000E+00  0.5189018355E-01 -0.1292612649E+01  0.7201848921E+00  0.0000000000E+00  0.0000000000E+00  0.0000000000E+00  0.1949585937E+00  0.6255991832E-02 -0.2780234386E-02  0.0000000000E+00  0.0000000000E+00  0.0000000000E+00
3  0.2351186746E-03  0.1106646804E-03  0.1871339926E-03  0.1374180490E-04  0.6205542652E-03 -0.1790106565E-01  0.2713715971E+00  0.3106995346E-01 -0.1802156841E+01  0.9670691601E+00  0.1507270000E+02  0.2719365611E+00  0.2949048829E-02 -0.3674040831E-02 -0.1790106565E-01  0.2713715971E+00  0.0000000000E+00  0.0000000000E+00  0.3106995346E-01 -0.1802156841E+01  0.9670691601E+00  0.0000000000E+00  0.0000000000E+00  0.0000000000E+00  0.2719365611E+00  0.2949048829E-02 -0.3674040831E-02  0.0000000000E+00  0.0000000000E+00  0.0000000000E+00
4  0.2119566313E-03  0.1283427323E-03  0.2545553483E-03  0.1727414109E-04  0.5571154715E-03 -0.1972151691E-01  0.2983061251E+00  0.1104858894E+00 -0.1980894004E+01  0.1060335289E+01  0.1746160000E+02  0.2989294514E+00  0.1342596168E-01 -0.4082352944E-02 -0.1972151691E-01  0.2983061251E+00  0.0000000000E+00  0.0000000000E+00  0.1104858894E+00 -0.1980894004E+01  0.1060335289E+01  0.0000000000E+00  0.0000000000E+00  0.0000000000E+00  0.2989294514E+00  0.1342596168E-01 -0.4082352944E-02  0.0000000000E+00  0.0000000000E+00  0.0000000000E+00
5  0.2127607603E-03  0.1591576661E-03  0.2817118084E-03  0.2329016205E-04  0.5497123542E-03 -0.1856251807E-01  0.2739756500E+00  0.3504822238E+00 -0.1819954376E+01  0.1024054790E+01  0.1993820000E+02  0.2745716630E+00  0.4590437071E-01 -0.4198301160E-02 -0.1856251807E-01  0.2739756500E+00  0.0000000000E+00  0.0000000000E+00  0.3504822238E+00 -0.1819954376E+01  0.1024054790E+01  0.0000000000E+00  0.0000000000E+00  0.0000000000E+00  0.2745716630E+00  0.4590437071E-01 -0.4198301160E-02  0.0000000000E+00  0.0000000000E+00  0.0000000000E+00
6  0.2301113826E-03  0.1954629073E-03  0.2926112747E-03  0.3698624755E-04  0.5821881371E-03 -0.1559656097E-01  0.2199989439E+00  0.6468485667E+00 -0.1458565652E+01  0.9174523543E+00  0.2241690000E+02  0.2205137039E+00  0.8497180319E-01 -0.4061331323E-02 -0.1559656097E-01  0.2199989439E+00  0.0000000000E+00  0.0000000000E+00  0.6468485667E+00 -0.1458565652E+01  0.9174523543E+00  0.0000000000E+00  0.0000000000E+00  0.0000000000E+00  0.2205137039E+00  0.8497180319E-01 -0.4061331323E-02  0.0000000000E+00  0.0000000000E+00  0.0000000000E+00
7  0.2362893871E-03  0.2318255213E-03  0.3092844778E-03  0.5625986146E-04  0.5791917722E-03 -0.1252415123E-01  0.1677585386E+00  0.8063223890E+00 -0.1115802010E+01  0.8256948560E+00  0.2494800000E+02  0.1681840948E+00  0.1106746570E+00 -0.3727183781E-02 -0.1252415123E-01  0.1677585386E+00  0.0000000000E+00  0.0000000000E+00  0.8063223890E+00 -0.1115802010E+01  0.8256948560E+00  0.0000000000E+00  0.0000000000E+00  0.0000000000E+00  0.1681840948E+00  0.1106746570E+00 -0.3727183781E-02  0.0000000000E+00  0.0000000000E+00  0.0000000000E+00
8  0.2337525498E-03  0.2636401161E-03  0.3147841574E-03  0.8249223353E-04  0.5524997193E-03 -0.1069617354E-01  0.1230105774E+00  0.1219113638E+01 -0.8070476664E+00  0.8280570193E+00  0.2742350000E+02  0.1234017901E+00  0.1685018629E+00 -0.4243638609E-02 -0.1069617354E-01  0.1230105774E+00  0.0000000000E+00  0.0000000000E+00  0.1219113638E+01 -0.8070476664E+00  0.8280570193E+00  0.0000000000E+00  0.0000000000E+00  0.0000000000E+00  0.1234017901E+00  0.1685018629E+00 -0.4243638609E-02  0.0000000000E+00  0.0000000000E+00  0.0000000000E+00
9  0.2464061249E-03  0.2871875099E-03  0.3116427496E-03  0.1137076283E-03  0.5698865145E-03 -0.1009799531E-01  0.9211702820E-01  0.1687172934E+01 -0.5983489730E+00  0.8883414254E+00  0.2992040000E+02  0.9251927325E-01  0.2344264013E+00 -0.5263123599E-02 -0.1009799531E-01  0.9211702820E-01  0.0000000000E+00  0.0000000000E+00  0.1687172934E+01 -0.5983489730E+00  0.8883414254E+00  0.0000000000E+00  0.0000000000E+00  0.0000000000E+00  0.9251927325E-01  0.2344264013E+00 -0.5263123599E-02  0.0000000000E+00  0.0000000000E+00  0.0000000000E+00
10  0.2653183374E-03  0.2940719730E-03  0.3035903375E-03  0.1411549043E-03  0.6050195462E-03 -0.1001349707E-01  0.6906594566E-01  0.2101287493E+01 -0.4471272839E+00  0.9514973143E+00  0.3242710000E+02  0.6949535913E-01  0.2945435145E+00 -0.6385141607E-02 -0.1001349707E-01  0.6906594566E-01  0.0000000000E+00  0.0000000000E+00  0.2101287493E+01 -0.4471272839E+00  0.9514973143E+00  0.0000000000E+00  0.0000000000E+00  0.0000000000E+00  0.6949535913E-01  0.2945435145E+00 -0.6385141607E-02  0.0000000000E+00  0.0000000000E+00  0.0000000000E+00
11  0.2825453538E-03  0.2851960401E-03  0.2962717745E-03  0.1593985658E-03  0.6397954428E-03 -0.9331332101E-02  0.4847777197E-01  0.2424074527E+01 -0.3206641755E+00  0.9910589721E+00  0.3493698333E+02  0.4889969906E-01  0.3458177945E+00 -0.6781413282E-02 -0.9331332101E-02  0.4847777197E-01  0.0000000000E+00  0.0000000000E+00  0.2424074527E+01 -0.3206641755E+00  0.9910589721E+00  0.0000000000E+00  0.0000000000E+00  0.0000000000E+00  0.4889969906E-01  0.3458177945E+00 -0.6781413282E-02  0.0000000000E+00  0.0000000000E+00  0.0000000000E+00
12  0.2939069061E-03  0.2845250152E-03  0.3104918407E-03  0.1813687059E-03  0.6721984496E-03 -0.7877883961E-02  0.3008276213E-01  0.2601319658E+01 -0.2104367725E+00  0.9861025590E+00  0.3742000000E+02  0.3045383134E-01  0.3767351413E+00 -0.6292677472E-02 -0.7877883961E-02  0.3008276213E-01  0.0000000000E+00  0.0000000000E+00  0.2601319658E+01 -0.2104367725E+00  0.9861025590E+00  0.0000000000E+00  0.0000000000E+00  0.0000000000E+00  0.3045383134E-01  0.3767351413E+00 -0.6292677472E-02  0.0000000000E+00  0.0000000000E+00  0.0000000000E+00
13  0.2905343678E-03  0.3126965178E-03  0.3547376297E-03  0.2249018542E-03  0.6746699499E-03 -0.5927756618E-02  0.1587331037E-01  0.2654529009E+01 -0.1263740258E+00  0.9406883576E+00  0.3990130000E+02  0.1616179136E-01  0.3846973948E+00 -0.5088887957E-02 -0.5927756618E-02  0.1587331037E-01  0.0000000000E+00  0.0000000000E+00  0.2654529009E+01 -0.1263740258E+00  0.9406883576E+00  0.0000000000E+00  0.0000000000E+00  0.0000000000E+00  0.1616179136E-01  0.3846973948E+00 -0.5088887957E-02  0.0000000000E+00  0.0000000000E+00  0.0000000000E+00
14  0.2761273878E-03  0.3420091756E-03  0.3954368763E-03  0.2728660358E-03  0.6406803718E-03 -0.1494481299E-02  0.8880711010E-02  0.2608356532E+01 -0.8552372865E-01  0.8711687399E+00  0.4235370000E+02  0.8946755412E-02  0.3798663719E+00 -0.1027652661E-02 -0.1494481299E-02  0.8880711010E-02  0.0000000000E+00  0.0000000000E+00  0.2608356532E+01 -0.8552372865E-01  0.8711687399E+00  0.0000000000E+00  0.0000000000E+00  0.0000000000E+00  0.8946755412E-02  0.3798663719E+00 -0.1027652661E-02  0.0000000000E+00  0.0000000000E+00  0.0000000000E+00
15  0.2579112429E-03  0.3479691460E-03  0.4175891327E-03  0.2965811459E-03  0.5896625483E-03  0.1291222003E-02  0.3725359456E-02  0.2433308777E+01 -0.6180482723E-01  0.7795405424E+00  0.4472320000E+02  0.3652676642E-02  0.3483039229E+00  0.1484422678E-02  0.1291222003E-02  0.3725359456E-02  0.0000000000E+00  0.0000000000E+00  0.2433308777E+01 -0.6180482723E-01  0.7795405424E+00  0.0000000000E+00  0.0000000000E+00  0.0000000000E+00  0.3652676642E-02  0.3483039229E+00  0.1484422678E-02  0.0000000000E+00  0.0000000000E+00  0.0000000000E+00
16  0.2565725184E-03  0.3492277698E-03  0.4413972864E-03  0.3062861501E-03  0.6006138297E-03  0.3015939218E-02  0.3725215506E-02  0.2167758261E+01 -0.6855448254E-01  0.6872274039E+00  0.4720330000E+02  0.3562268164E-02  0.3049802549E+00  0.3206768694E-02  0.3015939218E-02  0.3725215506E-02  0.0000000000E+00  0.0000000000E+00  0.2167758261E+01 -0.6855448254E-01  0.6872274039E+00  0.0000000000E+00  0.0000000000E+00  0.0000000000E+00  0.3562268164E-02  0.3049802549E+00  0.3206768694E-02  0.0000000000E+00  0.0000000000E+00  0.0000000000E+00
17  0.2587401220E-03  0.3545563447E-03  0.4981367065E-03  0.3322462030E-03  0.6182567731E-03  0.3461241331E-02  0.8341653848E-02  0.2013629801E+01 -0.1008753301E+00  0.6451446319E+00  0.4970990000E+02  0.8149074527E-02  0.2806297568E+00  0.3893066251E-02  0.3461241331E-02  0.8341653848E-02  0.0000000000E+00  0.0000000000E+00  0.2013629801E+01 -0.1008753301E+00  0.6451446319E+00  0.0000000000E+00  0.0000000000E+00  0.0000000000E+00  0.8149074527E-02  0.2806297568E+00  0.3893066251E-02  0.0000000000E+00  0.0000000000E+00  0.0000000000E+00
18  0.2521682712E-03  0.3544440866E-03  0.5678682171E-03  0.3746119987E-03  0.5905721849E-03  0.2353958360E-02  0.1567651133E-01  0.1929309718E+01 -0.1431132896E+00  0.6322314065E+00  0.5218640000E+02  0.1553183055E-01  0.2641411686E+00  0.3171177553E-02  0.2353958360E-02  0.1567651133E-01  0.0000000000E+00  0.0000000000E+00  0.1929309718E+01 -0.1431132896E+00  0.6322314065E+00  0.0000000000E+00  0.0000000000E+00  0.0000000000E+00  0.1553183055E-01  0.2641411686E+00  0.3171177553E-02  0.0000000000E+00  0.0000000000E+00  0.0000000000E+00
19  0.2372265929E-03  0.3396359214E-03  0.6114545167E-03  0.4024743721E-03  0.5413114865E-03 -0.9252518776E-04  0.2346622078E-01  0.1955534416E+01 -0.1830393491E+00  0.6577903832E+00  0.5468810000E+02  0.2343890354E-01  0.2654119852E+00  0.1135728719E-02 -0.9252518776E-04  0.2346622078E-01  0.0000000000E+00  0.0000000000E+00  0.1955534416E+01 -0.1830393491E+00  0.6577903832E+00  0.0000000000E+00  0.0000000000E+00  0.0000000000E+00  0.2343890354E-01  0.2654119852E+00  0.1135728719E-02  0.0000000000E+00  0.0000000000E+00  0.0000000000E+00
20  0.2204333747E-03  0.3108433051E-03  0.6208605586E-03  0.4017818541E-03  0.5127091324E-03 -0.2874860993E-02  0.2976337832E-01  0.2076197587E+01 -0.2114273895E+00  0.7112134273E+00  0.5710300000E+02  0.2987304724E-01  0.2832844370E+00 -0.1313226231E-02 -0.2874860993E-02  0.2976337832E-01  0.0000000000E+00  0.0000000000E+00  0.2076197587E+01 -0.2114273895E+00  0.7112134273E+00  0.0000000000E+00  0.0000000000E+00  0.0000000000E+00  0.2987304724E-01  0.2832844370E+00 -0.1313226231E-02  0.0000000000E+00  0.0000000000E+00  0.0000000000E+00
21  0.2062071015E-03  0.2824078398E-03  0.6150910645E-03  0.3849875673E-03  0.4989734391E-03 -0.4884954615E-02  0.3364597268E-01  0.2239081360E+01 -0.2268907221E+00  0.7710228554E+00  0.5965680000E+02  0.3385552081E-01  0.3091154009E+00 -0.3117365801E-02 -0.4884954615E-02  0.3364597268E-01  0.0000000000E+00  0.0000000000E+00  0.2239081360E+01 -0.2268907221E+00  0.7710228554E+00  0.0000000000E+00  0.0000000000E+00  0.0000000000E+00  0.3385552081E-01  0.3091154009E+00 -0.3117365801E-02  0.0000000000E+00  0.0000000000E+00  0.0000000000E+00
22  0.2013617801E-03  0.2620675980E-03  0.6046992221E-03  0.3711198992E-03  0.4819783249E-03 -0.5396546777E-02  0.3473225400E-01  0.2397159102E+01 -0.2297250280E+00  0.8183383674E+00  0.6218440000E+02  0.3496708809E-01  0.3346013733E+00 -0.3571405271E-02 -0.5396546777E-02  0.3473225400E-01  0.0000000000E+00  0.0000000000E+00  0.2397159102E+01 -0.2297250280E+00  0.8183383674E+00  0.0000000000E+00  0.0000000000E+00  0.0000000000E+00  0.3496708809E-01  0.3346013733E+00 -0.3571405271E-02  0.0000000000E+00  0.0000000000E+00  0.0000000000E+00
23  0.1961002338E-03  0.2527493677E-03  0.5813491137E-03  0.3604273507E-03  0.4494869162E-03 -0.4492164477E-02  0.3368017169E-01  0.2509522525E+01 -0.2243728791E+00  0.8423148489E+00  0.6468830000E+02  0.3386911590E-01  0.3526823670E+00 -0.2723324131E-02 -0.4492164477E-02  0.3368017169E-01  0.0000000000E+00  0.0000000000E+00  0.2509522525E+01 -0.2243728791E+00  0.8423148489E+00  0.0000000000E+00  0.0000000000E+00  0.0000000000E+00  0.3386911590E-01  0.3526823670E+00 -0.2723324131E-02  0.0000000000E+00  0.0000000000E+00  0.0000000000E+00
24  0.1803670285E-03  0.2547599386E-03  0.5349089568E-03  0.3396235239E-03  0.4157970392E-03 -0.2801417147E-02  0.3138575061E-01  0.2565505495E+01 -0.2148980829E+00  0.8428996095E+00  0.6716330000E+02  0.3148935237E-01  0.3612400063E+00 -0.1154974632E-02 -0.2801417147E-02  0.3138575061E-01  0.0000000000E+00  0.0000000000E+00  0.2565505495E+01 -0.2148980829E+00  0.8428996095E+00  0.0000000000E+00  0.0000000000E+00  0.0000000000E+00  0.3148935237E-01  0.3612400063E+00 -0.1154974632E-02  0.0000000000E+00  0.0000000000E+00  0.0000000000E+00
25  0.1594055057E-03  0.2570373022E-03  0.4714710059E-03  0.2994556744E-03  0.3973102338E-03 -0.1158917674E-02  0.2894228445E-01  0.2571329467E+01 -0.2052537796E+00  0.8278779534E+00  0.6958220000E+02  0.2896327312E-01  0.3613325285E+00  0.3573927151E-03 -0.1158917674E-02  0.2894228445E-01  0.0000000000E+00  0.0000000000E+00  0.2571329467E+01 -0.2052537796E+00  0.8278779534E+00  0.0000000000E+00  0.0000000000E+00  0.0000000000E+00  0.2896327312E-01  0.3613325285E+00  0.3573927151E-03  0.0000000000E+00  0.0000000000E+00  0.0000000000E+00
26  0.1336016454E-03  0.2490094354E-03  0.4053287574E-03  0.2517152605E-03  0.3548019351E-03 -0.2530674881E-03  0.2729476704E-01  0.2599481199E+01 -0.2029770111E+00  0.8079998914E+00  0.7202160000E+02  0.2727060504E-01  0.3598165354E+00  0.1175777066E-02 -0.2530674881E-03  0.2729476704E-01  0.0000000000E+00  0.0000000000E+00  0.2599481199E+01 -0.2029770111E+00  0.8079998914E+00  0.0000000000E+00  0.0000000000E+00  0.0000000000E+00  0.2727060504E-01  0.3598165354E+00  0.1175777066E-02  0.0000000000E+00  0.0000000000E+00  0.0000000000E+00
27  0.1155601724E-03  0.2267907937E-03  0.3419755025E-03  0.2107820865E-03  0.2993198165E-03 -0.1006587391E-03  0.2614596520E-01  0.2570128181E+01 -0.1961622399E+00  0.7940699549E+00  0.7452340000E+02  0.2611540114E-01  0.3547101736E+00  0.1267853301E-02 -0.1006587391E-03  0.2614596520E-01  0.0000000000E+00  0.0000000000E+00  0.2570128181E+01 -0.1961622399E+00  0.7940699549E+00  0.0000000000E+00  0.0000000000E+00  0.0000000000E+00  0.2611540114E-01  0.3547101736E+00  0.1267853301E-02  0.0000000000E+00  0.0000000000E+00  0.0000000000E+00
28  0.1043930041E-03  0.1988898578E-03  0.2820591819E-03  0.1803060732E-03  0.2597312874E-03 -0.4291057259E-03  0.2638573261E-01  0.2557077432E+01 -0.1935231788E+00  0.8004385126E+00  0.7702450000E+02  0.2637202954E-01  0.3560188374E+00  0.9524048959E-03 -0.4291057259E-03  0.2638573261E-01  0.0000000000E+00  0.0000000000E+00  0.2557077432E+01 -0.1935231788E+00  0.8004385126E+00  0.0000000000E+00  0.0000000000E+00  0.0000000000E+00  0.2637202954E-01  0.3560188374E+00  0.9524048959E-03  0.0000000000E+00  0.0000000000E+00  0.0000000000E+00
29  0.8846158122E-04  0.1713736882E-03  0.2256771705E-03  0.1562762080E-03  0.2221029711E-03 -0.1056318423E-02  0.2586353691E-01  0.2513148607E+01 -0.1838018456E+00  0.7950369704E+00  0.7956190000E+02  0.2588337526E-01  0.3524390354E+00  0.2987221602E-03 -0.1056318423E-02  0.2586353691E-01  0.0000000000E+00  0.0000000000E+00  0.2513148607E+01 -0.1838018456E+00  0.7950369704E+00  0.0000000000E+00  0.0000000000E+00  0.0000000000E+00  0.2588337526E-01  0.3524390354E+00  0.2987221602E-03  0.0000000000E+00  0.0000000000E+00  0.0000000000E+00
30  0.7018787238E-04  0.1464014091E-03  0.1785171605E-03  0.1296761602E-03  0.1873782453E-03 -0.1656402099E-02  0.2603563406E-01  0.2517366608E+01 -0.1826434198E+00  0.7981120392E+00  0.8203460000E+02  0.2608664252E-01  0.3533778697E+00 -0.2915322522E-03 -0.1656402099E-02  0.2603563406E-01  0.0000000000E+00  0.0000000000E+00  0.2517366608E+01 -0.1826434198E+00  0.7981120392E+00  0.0000000000E+00  0.0000000000E+00  0.0000000000E+00  0.2608664252E-01  0.3533778697E+00 -0.2915322522E-03  0.0000000000E+00  0.0000000000E+00  0.0000000000E+00
31  0.5496280954E-04  0.1238962766E-03  0.1411265774E-03  0.1032027183E-03  0.1522225588E-03 -0.1883753749E-02  0.2661935709E-01  0.2553108977E+01 -0.1871025331E+00  0.8083837348E+00  0.8445370000E+02  0.2668146424E-01  0.3577489854E+00 -0.4880226224E-03 -0.1883753749E-02  0.2661935709E-01  0.0000000000E+00  0.0000000000E+00  0.2553108977E+01 -0.1871025331E+00  0.8083837348E+00  0.0000000000E+00  0.0000000000E+00  0.0000000000E+00  0.2668146424E-01  0.3577489854E+00 -0.4880226224E-03  0.0000000000E+00  0.0000000000E+00  0.0000000000E+00
32  0.4567543594E-04  0.1012027521E-03  0.1124333895E-03  0.8322027786E-04  0.1219096049E-03 -0.1765478206E-02  0.2701659357E-01  0.2580784273E+01 -0.1902873163E+00  0.8155505027E+00  0.8698470000E+02  0.2707196626E-01  0.3615081964E+00 -0.3491194205E-03 -0.1765478206E-02  0.2701659357E-01  0.0000000000E+00  0.0000000000E+00  0.2580784273E+01 -0.1902873163E+00  0.8155505027E+00  0.0000000000E+00  0.0000000000E+00  0.0000000000E+00  0.2707196626E-01  0.3615081964E+00 -0.3491194205E-03  0.0000000000E+00  0.0000000000E+00  0.0000000000E+00
33  0.4000841789E-04  0.8093180299E-04  0.9021179296E-04  0.7038715505E-04  0.1031382468E-03 -0.1526604805E-02  0.2742343154E-01  0.2601204000E+01 -0.1929443435E+00  0.8217414407E+00  0.8954290000E+02  0.2746574500E-01  0.3647118645E+00 -0.8928113293E-04 -0.1526604805E-02  0.2742343154E-01  0.0000000000E+00  0.0000000000E+00  0.2601204000E+01 -0.1929443435E+00  0.8217414407E+00  0.0000000000E+00  0.0000000000E+00  0.0000000000E+00  0.2746574500E-01  0.3647118645E+00 -0.8928113293E-04  0.0000000000E+00  0.0000000000E+00  0.0000000000E+00
34  0.3276161469E-04  0.6419998293E-04  0.7363333850E-04  0.6013692963E-04  0.8658388265E-04 -0.1289774148E-02  0.2761776618E-01  0.2613166371E+01 -0.1950547200E+00  0.8228131393E+00  0.9207070000E+02  0.2764741856E-01  0.3661924593E+00  0.1573956451E-03 -0.1289774148E-02  0.2761776618E-01  0.0000000000E+00  0.0000000000E+00  0.2613166371E+01 -0.1950547200E+00  0.8228131393E+00  0.0000000000E+00  0.0000000000E+00  0.0000000000E+00  0.2764741856E-01  0.3661924593E+00  0.1573956451E-03  0.0000000000E+00  0.0000000000E+00  0.0000000000E+00
35  0.2648253338E-04  0.5159641430E-04  0.6119773869E-04  0.4967745374E-04  0.7225369177E-04 -0.1148950756E-02  0.2762962213E-01  0.2623203645E+01 -0.1956482630E+00  0.8236252148E+00  0.9448720000E+02  0.2765188813E-01  0.3672831682E+00  0.2986465354E-03 -0.1148950756E-02  0.2762962213E-01  0.0000000000E+00  0.0000000000E+00  0.2623203645E+01 -0.1956482630E+00  0.8236252148E+00  0.0000000000E+00  0.0000000000E+00  0.0000000000E+00  0.2765188813E-01  0.3672831682E+00  0.2986465354E-03  0.0000000000E+00  0.0000000000E+00  0.0000000000E+00
36  0.2211416813E-04  0.4200599213E-04  0.5193216515E-04  0.4064427120E-04  0.5956884893E-04 -0.1023202405E-02  0.2781225829E-01  0.2651457677E+01 -0.1987762178E+00  0.8280747571E+00  0.9699020000E+02  0.2782769284E-01  0.3699617842E+00  0.4337809913E-03 -0.1023202405E-02  0.2781225829E-01  0.0000000000E+00  0.0000000000E+00  0.2651457677E+01 -0.1987762178E+00  0.8280747571E+00  0.0000000000E+00  0.0000000000E+00  0.0000000000E+00  0.2782769284E-01  0.3699617842E+00  0.4337809913E-03  0.0000000000E+00  0.0000000000E+00  0.0000000000E+00
37  0.2001342855E-04  0.3370776289E-04  0.4492873914E-04  0.3396402553E-04  0.5214638638E-04 -0.1009675098E-02  0.2779056358E-01  0.2658635005E+01 -0.1983716839E+00  0.8302765517E+00  0.9940176250E+02  0.2780531989E-01  0.3709984570E+00  0.4461543463E-03 -0.1009675098E-02  0.2779056358E-01  0.0000000000E+00  0.0000000000E+00  0.2658635005E+01 -0.1983716839E+00  0.8302765517E+00  0.0000000000E+00  0.0000000000E+00  0.0000000000E+00  0.2780531989E-01  0.3709984570E+00  0.4461543463E-03  0.0000000000E+00  0.0000000000E+00  0.0000000000E+00
38  0.1941686516E-04  0.2688559830E-04  0.3969897137E-04  0.3006622321E-04  0.4997899117E-04 -0.1021821448E-02  0.2771043433E-01  0.2667292381E+01 -0.1975213324E+00  0.8327741681E+00  0.1019314000E+03  0.2772593615E-01  0.3723321122E+00  0.4298310011E-03 -0.1021821448E-02  0.2771043433E-01  0.0000000000E+00  0.0000000000E+00  0.2667292381E+01 -0.1975213324E+00  0.8327741681E+00  0.0000000000E+00  0.0000000000E+00  0.0000000000E+00  0.2772593615E-01  0.3723321122E+00  0.4298310011E-03  0.0000000000E+00  0.0000000000E+00  0.0000000000E+00
39  0.1806532961E-04  0.2182070906E-04  0.3599738109E-04  0.2731708049E-04  0.4690640195E-04 -0.9898409773E-03  0.2752866844E-01  0.2673290441E+01 -0.1962115373E+00  0.8331828471E+00  0.1043148000E+03  0.2754274563E-01  0.3730446505E+00  0.4522547524E-03 -0.9898409773E-03  0.2752866844E-01  0.0000000000E+00  0.0000000000E+00  0.2673290441E+01 -0.1962115373E+00  0.8331828471E+00  0.0000000000E+00  0.0000000000E+00  0.0000000000E+00  0.2754274563E-01  0.3730446505E+00  0.4522547524E-03  0.0000000000E+00  0.0000000000E+00  0.0000000000E+00
40  0.1702551815E-04  0.1837668517E-04  0.3349427228E-04  0.2494866078E-04  0.4439125395E-04 -0.9635994678E-03  0.2752735033E-01  0.2682165888E+01 -0.1959862935E+00  0.8357361939E+00  0.1068124000E+03  0.2754005595E-01  0.3743392239E+00  0.4783913141E-03 -0.9635994678E-03  0.2752735033E-01  0.0000000000E+00  0.0000000000E+00  0.2682165888E+01 -0.1959862935E+00  0.8357361939E+00  0.0000000000E+00  0.0000000000E+00  0.0000000000E+00  0.2754005595E-01  0.3743392239E+00  0.4783913141E-03  0.0000000000E+00  0.0000000000E+00  0.0000000000E+00
41  0.1689694091E-04  0.1571421921E-04  0.3194453906E-04  0.2318500765E-04  0.4357490107E-04 -0.9274657636E-03  0.2761799806E-01  0.2691106935E+01 -0.1964014457E+00  0.8381221652E+00  0.1092087000E+03  0.2762868836E-01  0.3755536797E+00  0.5192196342E-03 -0.9274657636E-03  0.2761799806E-01  0.0000000000E+00  0.0000000000E+00  0.2691106935E+01 -0.1964014457E+00  0.8381221652E+00  0.0000000000E+00  0.0000000000E+00  0.0000000000E+00  0.2762868836E-01  0.3755536797E+00  0.5192196342E-03  0.0000000000E+00  0.0000000000E+00  0.0000000000E+00
42  0.1697465228E-04  0.1372209088E-04  0.3072102430E-04  0.2213176454E-04  0.4351612986E-04 -0.8905269270E-03  0.2775197375E-01  0.2698017115E+01 -0.1973504115E+00  0.8400735285E+00  0.1117095000E+03  0.2776054721E-01  0.3765211282E+00  0.5631195928E-03 -0.8905269270E-03  0.2775197375E-01  0.0000000000E+00  0.0000000000E+00  0.2698017115E+01 -0.1973504115E+00  0.8400735285E+00  0.0000000000E+00  0.0000000000E+00  0.0000000000E+00  0.2776054721E-01  0.3765211282E+00  0.5631195928E-03  0.0000000000E+00  0.0000000000E+00  0.0000000000E+00
43  0.1710714957E-04  0.1222816030E-04  0.2979437786E-04  0.2095169214E-04  0.4382907275E-04 -0.8589442913E-03  0.2783490544E-01  0.2705049261E+01 -0.1980346701E+00  0.8417395669E+00  0.1140902000E+03  0.2784171234E-01  0.3774223516E+00  0.5989992551E-03 -0.8589442913E-03  0.2783490544E-01  0.0000000000E+00  0.0000000000E+00  0.2705049261E+01 -0.1980346701E+00  0.8417395669E+00  0.0000000000E+00  0.0000000000E+00  0.0000000000E+00  0.2784171234E-01  0.3774223516E+00  0.5989992551E-03  0.0000000000E+00  0.0000000000E+00  0.0000000000E+00
44  0.1818114249E-04  0.1162318522E-04  0.2848542555E-04  0.1980124197E-04  0.4625553725E-04 -0.8355560357E-03  0.2784301734E-01  0.2710618924E+01 -0.1980314658E+00  0.8432347027E+00  0.1165946000E+03  0.2784858907E-01  0.3782163250E+00  0.6227800019E-03 -0.8355560357E-03  0.2784301734E-01  0.0000000000E+00  0.0000000000E+00  0.2710618924E+01 -0.1980314658E+00  0.8432347027E+00  0.0000000000E+00  0.0000000000E+00  0.0000000000E+00  0.2784858907E-01  0.3782163250E+00  0.6227800019E-03  0.0000000000E+00  0.0000000000E+00  0.0000000000E+00
45  0.1813563739E-04  0.1098810081E-04  0.2689705813E-04  0.1835567292E-04  0.4595626822E-04 -0.8182460142E-03  0.2788135576E-01  0.2715964098E+01 -0.1982644026E+00  0.8446537409E+00  0.1189886000E+03  0.2788596901E-01  0.3788992934E+00  0.6420727783E-03 -0.8182460142E-03  0.2788135576E-01  0.0000000000E+00  0.0000000000E+00  0.2715964098E+01 -0.1982644026E+00  0.8446537409E+00  0.0000000000E+00  0.0000000000E+00  0.0000000000E+00  0.2788596901E-01  0.3788992934E+00  0.6420727783E-03  0.0000000000E+00  0.0000000000E+00  0.0000000000E+00
46  0.1811592881E-04  0.1052768597E-04  0.2494620421E-04  0.1712496926E-04  0.4556646967E-04 -0.8031863257E-03  0.2790163376E-01  0.2720546593E+01 -0.1984919508E+00  0.8459251625E+00  0.1214877000E+03  0.2790543106E-01  0.3795534148E+00  0.6581730967E-03 -0.8031863257E-03  0.2790163376E-01  0.0000000000E+00  0.0000000000E+00  0.2720546593E+01 -0.1984919508E+00  0.8459251625E+00  0.0000000000E+00  0.0000000000E+00  0.0000000000E+00  0.2790543106E-01  0.3795534148E+00  0.6581730967E-03  0.0000000000E+00  0.0000000000E+00  0.0000000000E+00
47  0.1819514946E-04  0.1039049276E-04  0.2309911626E-04  0.1570779762E-04  0.4601281224E-04 -0.7889634781E-03  0.2790091130E-01  0.2724831460E+01 -0.1984166261E+00  0.8469052457E+00  0.1238733000E+03  0.2790396523E-01  0.3800970916E+00  0.6723386417E-03 -0.7889634781E-03  0.2790091130E-01  0.0000000000E+00  0.0000000000E+00  0.2724831460E+01 -0.1984166261E+00  0.8469052457E+00  0.0000000000E+00  0.0000000000E+00  0.0000000000E+00  0.2790396523E-01  0.3800970916E+00  0.6723386417E-03  0.0000000000E+00  0.0000000000E+00  0.0000000000E+00
48  0.1841269986E-04  0.1034962537E-04  0.2094090761E-04  0.1440547348E-04  0.4655004355E-04 -0.7693735074E-03  0.2787861644E-01  0.2728417387E+01 -0.1982206793E+00  0.8479927979E+00  0.1263754000E+03  0.2788067566E-01  0.3806145539E+00  0.6907349422E-03 -0.7693735074E-03  0.2787861644E-01  0.0000000000E+00  0.0000000000E+00  0.2728417387E+01 -0.1982206793E+00  0.8479927979E+00  0.0000000000E+00  0.0000000000E+00  0.0000000000E+00  0.2788067566E-01  0.3806145539E+00  0.6907349422E-03  0.0000000000E+00  0.0000000000E+00  0.0000000000E+00
49  0.1860167317E-04  0.1011236367E-04  0.1895308698E-04  0.1296365884E-04  0.4693286248E-04 -0.7533130968E-03  0.2792873807E-01  0.2731997215E+01 -0.1986052484E+00  0.8489808351E+00  0.1287315000E+03  0.2792988807E-01  0.3810919550E+00  0.7093965063E-03 -0.7533130968E-03  0.2792873807E-01  0.0000000000E+00  0.0000000000E+00  0.2731997215E+01 -0.1986052484E+00  0.8489808351E+00  0.0000000000E+00  0.0000000000E+00  0.0000000000E+00  0.2792988807E-01  0.3810919550E+00  0.7093965063E-03  0.0000000000E+00  0.0000000000E+00  0.0000000000E+00
50  0.1906365651E-04  0.9905191035E-05  0.1697102376E-04  0.1197607241E-04  0.4793695366E-04 -0.7385120088E-03  0.2798883649E-01  0.2734641302E+01 -0.1989875485E+00  0.8498693282E+00  0.1312354000E+03  0.2798912950E-01  0.3814930973E+00  0.7273226182E-03 -0.7385120088E-03  0.2798883649E-01  0.0000000000E+00  0.0000000000E+00  0.2734641302E+01 -0.1989875485E+00  0.8498693282E+00  0.0000000000E+00  0.0000000000E+00  0.0000000000E+00  0.2798912950E-01  0.3814930973E+00  0.7273226182E-03  0.0000000000E+00  0.0000000000E+00  0.0000000000E+00
51  0.1884144707E-04  0.9734657493E-05  0.1531833996E-04  0.1067927427E-04  0.4741141465E-04 -0.7223625003E-03  0.2799072362E-01  0.2736529598E+01 -0.1988894539E+00  0.8504408688E+00  0.1336210000E+03  0.2799016884E-01  0.3817610975E+00  0.7435487589E-03 -0.7223625003E-03  0.2799072362E-01  0.0000000000E+00  0.0000000000E+00  0.2736529598E+01 -0.1988894539E+00  0.8504408688E+00  0.0000000000E+00  0.0000000000E+00  0.0000000000E+00  0.2799016884E-01  0.3817610975E+00  0.7435487589E-03  0.0000000000E+00  0.0000000000E+00  0.0000000000E+00
52  0.1920901889E-04  0.9693479319E-05  0.1405605498E-04  0.9734847961E-05  0.4836734722E-04 -0.7071978542E-03  0.2798268302E-01  0.2739426804E+01 -0.1988172022E+00  0.8512795687E+00  0.1361257000E+03  0.2798134560E-01  0.3821727422E+00  0.7582718099E-03 -0.7071978542E-03  0.2798268302E-01  0.0000000000E+00  0.0000000000E+00  0.2739426804E+01 -0.1988172022E+00  0.8512795687E+00  0.0000000000E+00  0.0000000000E+00  0.0000000000E+00  0.2798134560E-01  0.3821727422E+00  0.7582718099E-03  0.0000000000E+00  0.0000000000E+00  0.0000000000E+00
53  0.1956181764E-04  0.9491306749E-05  0.1302218810E-04  0.8757059988E-05  0.4913691191E-04 -0.7218079843E-03  0.2803503978E-01  0.2741251444E+01 -0.1991794951E+00  0.8520180462E+00  0.1385425979E+03  0.2803439525E-01  0.3823659834E+00  0.7464218437E-03 -0.7218079843E-03  0.2803503978E-01  0.0000000000E+00  0.0000000000E+00  0.2741251444E+01 -0.1991794951E+00  0.8520180462E+00  0.0000000000E+00  0.0000000000E+00  0.0000000000E+00  0.2803439525E-01  0.3823659834E+00  0.7464218437E-03  0.0000000000E+00  0.0000000000E+00  0.0000000000E+00
54  0.1941609968E-04  0.9254174986E-05  0.1180693178E-04  0.8370427141E-05  0.4865570888E-04 -0.7121245932E-03  0.2807514043E-01  0.2742936025E+01 -0.1995165680E+00  0.8526846162E+00  0.1410170000E+03  0.2807393415E-01  0.3826380615E+00  0.7581906699E-03 -0.7121245932E-03  0.2807514043E-01  0.0000000000E+00  0.0000000000E+00  0.2742936025E+01 -0.1995165680E+00  0.8526846162E+00  0.0000000000E+00  0.0000000000E+00  0.0000000000E+00  0.2807393415E-01  0.3826380615E+00  0.7581906699E-03  0.0000000000E+00  0.0000000000E+00  0.0000000000E+00