TITLE="fun3d_case_title"
VARIABLES="Iteration" "R_1" "R_2" "R_3" "R_4" "R_5" "C_L" "C_D" "C_M_x" "C_M_y" "C_M_z" "Wall Time" "C_x" "C_y" "C_z" "C_Lp" "C_Dp" "C_Lv" "C_Dv" "C_M_xp" "C_M_yp" "C_M_zp" "C_M_xv" "C_M_yv" "C_M_zv" "C_xp" "C_yp" "C_zp" "C_xv" "C_yv" "C_zv"
ZONE  I=100 F=POINT
1  0.3198382521E-03  0.1599191261E-03  0.1855433147E-14  0.1833190142E-14  0.8395754118E-03 -0.8229080749E-01  0.1598223655E+01  0.2099073306E+01 -0.1047314183E+02  0.6648768102E+01  0.7651155208E+01  0.1598223655E+01  0.2903913690E+00 -0.8229080749E-01 -0.8229080749E-01  0.1598223655E+01  0.0000000000E+00  0.0000000000E+00  0.2099073306E+01 -0.1047314183E+02  0.6648768102E+01  0.0000000000E+00  0.0000000000E+00  0.0000000000E+00  0.1598223655E+01  0.2903913690E+00 -0.8229080749E-01  0.0000000000E+00  0.0000000000E+00  0.0000000000E+00
2  0.3076774945E-03  0.1490350695E-03  0.2817036456E-04  0.2261351520E-05  0.8078441267E-03 -0.1631621919E+00  0.3203101020E+01  0.3862839910E+01 -0.2099010122E+02  0.1318729092E+02  0.8691183333E+01  0.3203101020E+01  0.5336226806E+00 -0.1631621919E+00 -0.1631621919E+00  0.3203101020E+01  0.0000000000E+00  0.0000000000E+00  0.3862839910E+01 -0.2099010122E+02  0.1318729092E+02  0.0000000000E+00  0.0000000000E+00  0.0000000000E+00  0.3203101020E+01  0.5336226806E+00 -0.1631621919E+00  0.0000000000E+00  0.0000000000E+00  0.0000000000E+00
3  0.2959011474E-03  0.1391495830E-03  0.5596221605E-04  0.4286270435E-05  0.7772154209E-03 -0.2419334929E+00  0.4803836698E+01  0.5259910920E+01 -0.3148023514E+02  0.1956167876E+02  0.9777258333E+01  0.4803836698E+01  0.7254261046E+00 -0.2419334929E+00 -0.2419334929E+00  0.4803836698E+01  0.0000000000E+00  0.0000000000E+00  0.5259910920E+01 -0.3148023514E+02  0.1956167876E+02  0.0000000000E+00  0.0000000000E+00  0.0000000000E+00  0.4803836698E+01  0.7254261046E+00 -0.2419334929E+00  0.0000000000E+00  0.0000000000E+00  0.0000000000E+00
4  0.2837953982E-03  0.1298353589E-03  0.8290560876E-04  0.6012896607E-05  0.7456715596E-03 -0.3177419926E+00  0.6384643390E+01  0.6270415300E+01 -0.4183999206E+02  0.2570249163E+02  0.1082493333E+02  0.6384643390E+01  0.8631498358E+00 -0.3177419926E+00 -0.3177419926E+00  0.6384643390E+01  0.0000000000E+00  0.0000000000E+00  0.6270415300E+01 -0.4183999206E+02  0.2570249163E+02  0.0000000000E+00  0.0000000000E+00  0.0000000000E+00  0.6384643390E+01  0.8631498358E+00 -0.3177419926E+00  0.0000000000E+00  0.0000000000E+00  0.0000000000E+00
5  0.2719777935E-03  0.1216697180E-03  0.1087682804E-03  0.7468249422E-05  0.7148337369E-03 -0.3898235519E+00  0.7930568370E+01  0.6886579146E+01 -0.5197152682E+02  0.3154818373E+02  0.1187168333E+02  0.7930568370E+01  0.9458635183E+00 -0.3898235519E+00 -0.3898235519E+00  0.7930568370E+01  0.0000000000E+00  0.0000000000E+00  0.6886579146E+01 -0.5197152682E+02  0.3154818373E+02  0.0000000000E+00  0.0000000000E+00  0.0000000000E+00  0.7930568370E+01  0.9458635183E+00 -0.3898235519E+00  0.0000000000E+00  0.0000000000E+00  0.0000000000E+00
6  0.2618401707E-03  0.1154684543E-03  0.1331860537E-03  0.8657348843E-05  0.6883309455E-03 -0.4562948817E+00  0.9446030211E+01  0.7183018065E+01 -0.6200501823E+02  0.3702683315E+02  0.1296255833E+02  0.9446030211E+01  0.9745935987E+00 -0.4562948817E+00 -0.4562948817E+00  0.9446030211E+01  0.0000000000E+00  0.0000000000E+00  0.7183018065E+01 -0.6200501823E+02  0.3702683315E+02  0.0000000000E+00  0.0000000000E+00  0.0000000000E+00  0.9446030211E+01  0.9745935987E+00 -0.4562948817E+00  0.0000000000E+00  0.0000000000E+00  0.0000000000E+00
7  0.2523665012E-03  0.1108334488E-03  0.1561499675E-03  0.9615826602E-05  0.6634666391E-03 -0.5171486596E+00  0.1089943524E+02  0.6834698818E+01 -0.7158886959E+02  0.4209910498E+02  0.1399048333E+02  0.1089943524E+02  0.9269443766E+00 -0.5171486596E+00 -0.5171486596E+00  0.1089943524E+02  0.0000000000E+00  0.0000000000E+00  0.6834698818E+01 -0.7158886959E+02  0.4209910498E+02  0.0000000000E+00  0.0000000000E+00  0.0000000000E+00  0.1089943524E+02  0.9269443766E+00 -0.5171486596E+00  0.0000000000E+00  0.0000000000E+00  0.0000000000E+00
8  0.2429791629E-03  0.1077400621E-03  0.1774418982E-03  0.1034119440E-04  0.6387545329E-03 -0.5593255794E+00  0.1223254202E+02  0.5203338020E+01 -0.8025201134E+02  0.4657369238E+02  0.1503070833E+02  0.1223254202E+02  0.7494294839E+00 -0.5593255794E+00 -0.5593255794E+00  0.1223254202E+02  0.0000000000E+00  0.0000000000E+00  0.5203338020E+01 -0.8025201134E+02  0.4657369238E+02  0.0000000000E+00  0.0000000000E+00  0.0000000000E+00  0.1223254202E+02  0.7494294839E+00 -0.5593255794E+00  0.0000000000E+00  0.0000000000E+00  0.0000000000E+00
9  0.2352050132E-03  0.1067523834E-03  0.1966053615E-03  0.1087905372E-04  0.6180704177E-03 -0.6052730633E+00  0.1346437799E+02  0.2944097165E+01 -0.8825412939E+02  0.5045944182E+02  0.1610158333E+02  0.1346437799E+02  0.4986350602E+00 -0.6052730633E+00 -0.6052730633E+00  0.1346437799E+02  0.0000000000E+00  0.0000000000E+00  0.2944097165E+01 -0.8825412939E+02  0.5045944182E+02  0.0000000000E+00  0.0000000000E+00  0.0000000000E+00  0.1346437799E+02  0.4986350602E+00 -0.6052730633E+00  0.0000000000E+00  0.0000000000E+00  0.0000000000E+00
10  0.2296557692E-03  0.1080114846E-03  0.2135181934E-03  0.1127197034E-04  0.6030549042E-03 -0.6455236940E+00  0.1459670483E+02  0.5254124731E+00 -0.9565918167E+02  0.5381538343E+02  0.1718258333E+02  0.1459670483E+02  0.2190883839E+00 -0.6455236940E+00 -0.6455236940E+00  0.1459670483E+02  0.0000000000E+00  0.0000000000E+00  0.5254124731E+00 -0.9565918167E+02  0.5381538343E+02  0.0000000000E+00  0.0000000000E+00  0.0000000000E+00  0.1459670483E+02  0.2190883839E+00 -0.6455236940E+00  0.0000000000E+00  0.0000000000E+00  0.0000000000E+00
11  0.2262665552E-03  0.1111488758E-03  0.2281145450E-03  0.1158100142E-04  0.5935784909E-03 -0.6807003676E+00  0.1561700429E+02 -0.1977949288E+01 -0.1023497015E+03  0.5663818941E+02  0.1823458333E+02  0.1561700429E+02 -0.7392948875E-01 -0.6807003676E+00 -0.6807003676E+00  0.1561700429E+02  0.0000000000E+00  0.0000000000E+00 -0.1977949288E+01 -0.1023497015E+03  0.5663818941E+02  0.0000000000E+00  0.0000000000E+00  0.0000000000E+00  0.1561700429E+02 -0.7392948875E-01 -0.6807003676E+00  0.0000000000E+00  0.0000000000E+00  0.0000000000E+00
12  0.2247674440E-03  0.1156577930E-03  0.2404115266E-03  0.1187728093E-04  0.5889992185E-03 -0.7094138421E+00  0.1650529367E+02 -0.4434977104E+01 -0.1081804468E+03  0.5893286118E+02  0.1932648333E+02  0.1650529367E+02 -0.3643222340E+00 -0.7094138421E+00 -0.7094138421E+00  0.1650529367E+02  0.0000000000E+00  0.0000000000E+00 -0.4434977104E+01 -0.1081804468E+03  0.5893286118E+02  0.0000000000E+00  0.0000000000E+00  0.0000000000E+00  0.1650529367E+02 -0.3643222340E+00 -0.7094138421E+00  0.0000000000E+00  0.0000000000E+00  0.0000000000E+00
13  0.2249430865E-03  0.1211243424E-03  0.2504607472E-03  0.1223836721E-04  0.5888210368E-03 -0.7309659643E+00  0.1725161879E+02 -0.6762157339E+01 -0.1130811936E+03  0.6069649374E+02  0.2040198333E+02  0.1725161879E+02 -0.6448417795E+00 -0.7309659643E+00 -0.7309659643E+00  0.1725161879E+02  0.0000000000E+00  0.0000000000E+00 -0.6762157339E+01 -0.1130811936E+03  0.6069649374E+02  0.0000000000E+00  0.0000000000E+00  0.0000000000E+00  0.1725161879E+02 -0.6448417795E+00 -0.7309659643E+00  0.0000000000E+00  0.0000000000E+00  0.0000000000E+00
14  0.2267244900E-03  0.1274298409E-03  0.2586292662E-03  0.1276082399E-04  0.5930594128E-03 -0.7420845707E+00  0.1781752862E+02 -0.8648788630E+01 -0.1165428140E+03  0.6193341720E+02  0.2149428333E+02  0.1781752862E+02 -0.9451291959E+00 -0.7420845707E+00 -0.7420845707E+00  0.1781752862E+02  0.0000000000E+00  0.0000000000E+00 -0.8648788630E+01 -0.1165428140E+03  0.6193341720E+02  0.0000000000E+00  0.0000000000E+00  0.0000000000E+00  0.1781752862E+02 -0.9451291959E+00 -0.7420845707E+00  0.0000000000E+00  0.0000000000E+00  0.0000000000E+00
15  0.2297904048E-03  0.1338719278E-03  0.2646981376E-03  0.1350060921E-04  0.6006222372E-03 -0.7363822417E+00  0.1834589098E+02 -0.1245029489E+02 -0.1205019093E+03  0.6235592763E+02  0.2257718333E+02  0.1834589098E+02 -0.1378421124E+01 -0.7363822417E+00 -0.7363822417E+00  0.1834589098E+02  0.0000000000E+00  0.0000000000E+00 -0.1245029489E+02 -0.1205019093E+03  0.6235592763E+02  0.0000000000E+00  0.0000000000E+00  0.0000000000E+00  0.1834589098E+02 -0.1378421124E+01 -0.7363822417E+00  0.0000000000E+00  0.0000000000E+00  0.0000000000E+00
16  0.2330123410E-03  0.1405764379E-03  0.2693475063E-03  0.1445389903E-04  0.6086806548E-03 -0.7288449750E+00  0.1867185807E+02 -0.1624987191E+02 -0.1228212480E+03  0.6231966653E+02  0.2365543333E+02  0.1867185807E+02 -0.1784236808E+01 -0.7288449750E+00 -0.7288449750E+00  0.1867185807E+02  0.0000000000E+00  0.0000000000E+00 -0.1624987191E+02 -0.1228212480E+03  0.6231966653E+02  0.0000000000E+00  0.0000000000E+00  0.0000000000E+00  0.1867185807E+02 -0.1784236808E+01 -0.7288449750E+00  0.0000000000E+00  0.0000000000E+00  0.0000000000E+00
17  0.2362508708E-03  0.1471564820E-03  0.2724625745E-03  0.1562108453E-04  0.6168535765E-03 -0.7218263880E+00  0.1885189786E+02 -0.1939356579E+02 -0.1241544661E+03  0.6187526912E+02  0.2473293333E+02  0.1885189786E+02 -0.2110623567E+01 -0.7218263880E+00 -0.7218263880E+00  0.1885189786E+02  0.0000000000E+00  0.0000000000E+00 -0.1939356579E+02 -0.1241544661E+03  0.6187526912E+02  0.0000000000E+00  0.0000000000E+00  0.0000000000E+00  0.1885189786E+02 -0.2110623567E+01 -0.7218263880E+00  0.0000000000E+00  0.0000000000E+00  0.0000000000E+00
18  0.2391653037E-03  0.1536497592E-03  0.2745522987E-03  0.1696706996E-04  0.6242455792E-03 -0.7167862838E+00  0.1886564926E+02 -0.2176413564E+02 -0.1243166490E+03  0.6108007399E+02  0.2581758333E+02  0.1886564926E+02 -0.2340987925E+01 -0.7167862838E+00 -0.7167862838E+00  0.1886564926E+02  0.0000000000E+00  0.0000000000E+00 -0.2176413564E+02 -0.1243166490E+03  0.6108007399E+02  0.0000000000E+00  0.0000000000E+00  0.0000000000E+00  0.1886564926E+02 -0.2340987925E+01 -0.7167862838E+00  0.0000000000E+00  0.0000000000E+00  0.0000000000E+00
19  0.2416436378E-03  0.1600400101E-03  0.2759238738E-03  0.1850662814E-04  0.6304990814E-03 -0.7077725639E+00  0.1874864604E+02 -0.2326504389E+02 -0.1236619478E+03  0.6003504365E+02  0.2689165833E+02  0.1874864604E+02 -0.2458632402E+01 -0.7077725639E+00 -0.7077725639E+00  0.1874864604E+02  0.0000000000E+00  0.0000000000E+00 -0.2326504389E+02 -0.1236619478E+03  0.6003504365E+02  0.0000000000E+00  0.0000000000E+00  0.0000000000E+00  0.1874864604E+02 -0.2458632402E+01 -0.7077725639E+00  0.0000000000E+00  0.0000000000E+00  0.0000000000E+00
20  0.2435654124E-03  0.1663925811E-03  0.2770733448E-03  0.2019071806E-04  0.6352697276E-03 -0.6966755535E+00  0.1852132310E+02 -0.2393179175E+02 -0.1222142796E+03  0.5882333841E+02  0.2798195833E+02  0.1852132310E+02 -0.2482715498E+01 -0.6966755535E+00 -0.6966755535E+00  0.1852132310E+02  0.0000000000E+00  0.0000000000E+00 -0.2393179175E+02 -0.1222142796E+03  0.5882333841E+02  0.0000000000E+00  0.0000000000E+00  0.0000000000E+00  0.1852132310E+02 -0.2482715498E+01 -0.6966755535E+00  0.0000000000E+00  0.0000000000E+00  0.0000000000E+00
21  0.2447398978E-03  0.1727117810E-03  0.2781726419E-03  0.2199411770E-04  0.6379882616E-03 -0.6833998593E+00  0.1818745859E+02 -0.2370919094E+02 -0.1200341146E+03  0.5747828859E+02  0.2906288333E+02  0.1818745859E+02 -0.2402785881E+01 -0.6833998593E+00 -0.6833998593E+00  0.1818745859E+02  0.0000000000E+00  0.0000000000E+00 -0.2370919094E+02 -0.1200341146E+03  0.5747828859E+02  0.0000000000E+00  0.0000000000E+00  0.0000000000E+00  0.1818745859E+02 -0.2402785881E+01 -0.6833998593E+00  0.0000000000E+00  0.0000000000E+00  0.0000000000E+00
22  0.2445366690E-03  0.1790078313E-03  0.2787217083E-03  0.2397137507E-04  0.6369114135E-03 -0.6442452133E+00  0.1778193627E+02 -0.2311637293E+02 -0.1172133922E+03  0.5593662588E+02  0.3012615833E+02  0.1778193627E+02 -0.2272395613E+01 -0.6442452133E+00 -0.6442452133E+00  0.1778193627E+02  0.0000000000E+00  0.0000000000E+00 -0.2311637293E+02 -0.1172133922E+03  0.5593662588E+02  0.0000000000E+00  0.0000000000E+00  0.0000000000E+00  0.1778193627E+02 -0.2272395613E+01 -0.6442452133E+00  0.0000000000E+00  0.0000000000E+00  0.0000000000E+00
23  0.2447270451E-03  0.1856343670E-03  0.2806790036E-03  0.2596373480E-04  0.6369400237E-03 -0.6397129720E+00  0.1724316864E+02 -0.2262388538E+02 -0.1133744636E+03  0.5432438523E+02  0.3116988333E+02  0.1724316864E+02 -0.2124990141E+01 -0.6397129720E+00 -0.6397129720E+00  0.1724316864E+02  0.0000000000E+00  0.0000000000E+00 -0.2262388538E+02 -0.1133744636E+03  0.5432438523E+02  0.0000000000E+00  0.0000000000E+00  0.0000000000E+00  0.1724316864E+02 -0.2124990141E+01 -0.6397129720E+00  0.0000000000E+00  0.0000000000E+00  0.0000000000E+00
24  0.2438193510E-03  0.1921485456E-03  0.2827988418E-03  0.2804084992E-04  0.6336818668E-03 -0.6242979640E+00  0.1669777618E+02 -0.2074619283E+02 -0.1097641482E+03  0.5280656795E+02  0.3225458333E+02  0.1669777618E+02 -0.1842877341E+01 -0.6242979640E+00 -0.6242979640E+00  0.1669777618E+02  0.0000000000E+00  0.0000000000E+00 -0.2074619283E+02 -0.1097641482E+03  0.5280656795E+02  0.0000000000E+00  0.0000000000E+00  0.0000000000E+00  0.1669777618E+02 -0.1842877341E+01 -0.6242979640E+00  0.0000000000E+00  0.0000000000E+00  0.0000000000E+00
25  0.2419426599E-03  0.1987024009E-03  0.2850254635E-03  0.3019923689E-04  0.6275397776E-03 -0.6086161353E+00  0.1613187044E+02 -0.1823239554E+02 -0.1060144566E+03  0.5136346441E+02  0.3332955833E+02  0.1613187044E+02 -0.1491949084E+01 -0.6086161353E+00 -0.6086161353E+00  0.1613187044E+02  0.0000000000E+00  0.0000000000E+00 -0.1823239554E+02 -0.1060144566E+03  0.5136346441E+02  0.0000000000E+00  0.0000000000E+00  0.0000000000E+00  0.1613187044E+02 -0.1491949084E+01 -0.6086161353E+00  0.0000000000E+00  0.0000000000E+00  0.0000000000E+00
26  0.2406182063E-03  0.2054048900E-03  0.2878977035E-03  0.3249052007E-04  0.6228007956E-03 -0.5952206916E+00  0.1552081096E+02 -0.1509443573E+02 -0.1019482784E+03  0.5005627899E+02  0.3440858333E+02  0.1552081096E+02 -0.1076365892E+01 -0.5952206916E+00 -0.5952206916E+00  0.1552081096E+02  0.0000000000E+00  0.0000000000E+00 -0.1509443573E+02 -0.1019482784E+03  0.5005627899E+02  0.0000000000E+00  0.0000000000E+00  0.0000000000E+00  0.1552081096E+02 -0.1076365892E+01 -0.5952206916E+00  0.0000000000E+00  0.0000000000E+00  0.0000000000E+00
27  0.2398855449E-03  0.2119929259E-03  0.2909350518E-03  0.3487604911E-04  0.6195415842E-03 -0.5915203427E+00  0.1487427258E+02 -0.9822891302E+01 -0.9764587113E+02  0.4912477264E+02  0.3548358333E+02  0.1487427258E+02 -0.4299477924E+00 -0.5915203427E+00 -0.5915203427E+00  0.1487427258E+02  0.0000000000E+00  0.0000000000E+00 -0.9822891302E+01 -0.9764587113E+02  0.4912477264E+02  0.0000000000E+00  0.0000000000E+00  0.0000000000E+00  0.1487427258E+02 -0.4299477924E+00 -0.5915203427E+00  0.0000000000E+00  0.0000000000E+00  0.0000000000E+00
28  0.2381658120E-03  0.2186480888E-03  0.2935679067E-03  0.3746443694E-04  0.6132498992E-03 -0.5824638059E+00  0.1426901771E+02 -0.4329766546E+01 -0.9362626234E+02  0.4842083911E+02  0.3656893333E+02  0.1426901771E+02  0.2612807727E+00 -0.5824638059E+00 -0.5824638059E+00  0.1426901771E+02  0.0000000000E+00  0.0000000000E+00 -0.4329766546E+01 -0.9362626234E+02  0.4842083911E+02  0.0000000000E+00  0.0000000000E+00  0.0000000000E+00  0.1426901771E+02  0.2612807727E+00 -0.5824638059E+00  0.0000000000E+00  0.0000000000E+00  0.0000000000E+00
29  0.2368990420E-03  0.2252886712E-03  0.2960651204E-03  0.4022941188E-04  0.6080345098E-03 -0.5752026863E+00  0.1366762498E+02  0.1273266777E+01 -0.8959144004E+02  0.4788132269E+02  0.3761458333E+02  0.1366762498E+02  0.9631007743E+00 -0.5752026863E+00 -0.5752026863E+00  0.1366762498E+02  0.0000000000E+00  0.0000000000E+00  0.1273266777E+01 -0.8959144004E+02  0.4788132269E+02  0.0000000000E+00  0.0000000000E+00  0.0000000000E+00  0.1366762498E+02  0.9631007743E+00 -0.5752026863E+00  0.0000000000E+00  0.0000000000E+00  0.0000000000E+00
30  0.2360293138E-03  0.2318330919E-03  0.2982061612E-03  0.4319047521E-04  0.6037669079E-03 -0.5693934098E+00  0.1308805554E+02  0.6834362996E+01 -0.8568678662E+02  0.4747452268E+02  0.3869765833E+02  0.1308805554E+02  0.1656891340E+01 -0.5693934098E+00 -0.5693934098E+00  0.1308805554E+02  0.0000000000E+00  0.0000000000E+00  0.6834362996E+01 -0.8568678662E+02  0.4747452268E+02  0.0000000000E+00  0.0000000000E+00  0.0000000000E+00  0.1308805554E+02  0.1656891340E+01 -0.5693934098E+00  0.0000000000E+00  0.0000000000E+00  0.0000000000E+00
31  0.2356879436E-03  0.2382436880E-03  0.2999241658E-03  0.4636636972E-04  0.6008195487E-03 -0.5650918767E+00  0.1253891014E+02  0.1224388013E+02 -0.8197810741E+02  0.4720108734E+02  0.3983548333E+02  0.1253891014E+02  0.2329771828E+01 -0.5650918767E+00 -0.5650918767E+00  0.1253891014E+02  0.0000000000E+00  0.0000000000E+00  0.1224388013E+02 -0.8197810741E+02  0.4720108734E+02  0.0000000000E+00  0.0000000000E+00  0.0000000000E+00  0.1253891014E+02  0.2329771828E+01 -0.5650918767E+00  0.0000000000E+00  0.0000000000E+00  0.0000000000E+00
32  0.2359115318E-03  0.2444634809E-03  0.3011509391E-03  0.4976856953E-04  0.5993174451E-03 -0.5620748310E+00  0.1202368906E+02  0.1741741599E+02 -0.7848668170E+02  0.4704554839E+02  0.4092278333E+02  0.1202368906E+02  0.2972062923E+01 -0.5620748310E+00 -0.5620748310E+00  0.1202368906E+02  0.0000000000E+00  0.0000000000E+00  0.1741741599E+02 -0.7848668170E+02  0.4704554839E+02  0.0000000000E+00  0.0000000000E+00  0.0000000000E+00  0.1202368906E+02  0.2972062923E+01 -0.5620748310E+00  0.0000000000E+00  0.0000000000E+00  0.0000000000E+00
33  0.2368965387E-03  0.2504921105E-03  0.3020684944E-03  0.5343835215E-04  0.5997147127E-03 -0.5601644728E+00  0.1155775815E+02  0.2227814835E+02 -0.7532257095E+02  0.4702762717E+02  0.4200830833E+02  0.1155775815E+02  0.3567292666E+01 -0.5601644728E+00 -0.5601644728E+00  0.1155775815E+02  0.0000000000E+00  0.0000000000E+00  0.2227814835E+02 -0.7532257095E+02  0.4702762717E+02  0.0000000000E+00  0.0000000000E+00  0.0000000000E+00  0.1155775815E+02  0.3567292666E+01 -0.5601644728E+00  0.0000000000E+00  0.0000000000E+00  0.0000000000E+00
34  0.2412002761E-03  0.2572600482E-03  0.3045499848E-03  0.5735100465E-04  0.6084526496E-03 -0.5628982985E+00  0.1121273956E+02  0.2854489937E+02 -0.7339827673E+02  0.4749617977E+02  0.4310398333E+02  0.1121273956E+02  0.4231157901E+01 -0.5628982985E+00 -0.5628982985E+00  0.1121273956E+02  0.0000000000E+00  0.0000000000E+00  0.2854489937E+02 -0.7339827673E+02  0.4749617977E+02  0.0000000000E+00  0.0000000000E+00  0.0000000000E+00  0.1121273956E+02  0.4231157901E+01 -0.5628982985E+00  0.0000000000E+00  0.0000000000E+00  0.0000000000E+00
35  0.2428215671E-03  0.2627023975E-03  0.3044447880E-03  0.6147701431E-04  0.6105270040E-03 -0.5582938256E+00  0.1080428604E+02  0.3399768456E+02 -0.7053671724E+02  0.4762128503E+02  0.4418998333E+02  0.1080428604E+02  0.4813995899E+01 -0.5582938256E+00 -0.5582938256E+00  0.1080428604E+02  0.0000000000E+00  0.0000000000E+00  0.3399768456E+02 -0.7053671724E+02  0.4762128503E+02  0.0000000000E+00  0.0000000000E+00  0.0000000000E+00  0.1080428604E+02  0.4813995899E+01 -0.5582938256E+00  0.0000000000E+00  0.0000000000E+00  0.0000000000E+00
36  0.2449920108E-03  0.2678316015E-03  0.3041761625E-03  0.6587811853E-04  0.6139613064E-03 -0.5563737184E+00  0.1043397441E+02  0.3892831976E+02 -0.6794274445E+02  0.4784819208E+02  0.4527008333E+02  0.1043397441E+02  0.5350871517E+01 -0.5563737184E+00 -0.5563737184E+00  0.1043397441E+02  0.0000000000E+00  0.0000000000E+00  0.3892831976E+02 -0.6794274445E+02  0.4784819208E+02  0.0000000000E+00  0.0000000000E+00  0.0000000000E+00  0.1043397441E+02  0.5350871517E+01 -0.5563737184E+00  0.0000000000E+00  0.0000000000E+00  0.0000000000E+00
37  0.2475575404E-03  0.2725746917E-03  0.3037716170E-03  0.7053792894E-04  0.6183569358E-03 -0.5550304365E+00  0.1009528399E+02  0.4333668835E+02 -0.6557680302E+02  0.4811215507E+02  0.4635505833E+02  0.1009528399E+02  0.5843355394E+01 -0.5550304365E+00 -0.5550304365E+00  0.1009528399E+02  0.0000000000E+00  0.0000000000E+00  0.4333668835E+02 -0.6557680302E+02  0.4811215507E+02  0.0000000000E+00  0.0000000000E+00  0.0000000000E+00  0.1009528399E+02  0.5843355394E+01 -0.5550304365E+00  0.0000000000E+00  0.0000000000E+00  0.0000000000E+00
38  0.2505826150E-03  0.2768803136E-03  0.3033864568E-03  0.7551565790E-04  0.6238020353E-03 -0.5561325303E+00  0.9803080792E+01  0.4718174627E+02 -0.6344874474E+02  0.4841874367E+02  0.4744455833E+02  0.9803080792E+01  0.6266055545E+01 -0.5561325303E+00 -0.5561325303E+00  0.9803080792E+01  0.0000000000E+00  0.0000000000E+00  0.4718174627E+02 -0.6344874474E+02  0.4841874367E+02  0.0000000000E+00  0.0000000000E+00  0.0000000000E+00  0.9803080792E+01  0.6266055545E+01 -0.5561325303E+00  0.0000000000E+00  0.0000000000E+00  0.0000000000E+00
39  0.2537110260E-03  0.2808062547E-03  0.3030454331E-03  0.8071647292E-04  0.6294597870E-03 -0.5555970781E+00  0.9519782231E+01  0.5062147865E+02 -0.6146597654E+02  0.4867900670E+02  0.4854495833E+02  0.9519782231E+01  0.6657361509E+01 -0.5555970781E+00 -0.5555970781E+00  0.9519782231E+01  0.0000000000E+00  0.0000000000E+00  0.5062147865E+02 -0.6146597654E+02  0.4867900670E+02  0.0000000000E+00  0.0000000000E+00  0.0000000000E+00  0.9519782231E+01  0.6657361509E+01 -0.5555970781E+00  0.0000000000E+00  0.0000000000E+00  0.0000000000E+00
40  0.2582144320E-03  0.2848163889E-03  0.3038298894E-03  0.8628057521E-04  0.6382466932E-03 -0.5518376563E+00  0.9239465710E+01  0.5336001185E+02 -0.5926070314E+02  0.4894892083E+02  0.4959158333E+02  0.9239465710E+01  0.6973765795E+01 -0.5518376563E+00 -0.5518376563E+00  0.9239465710E+01  0.0000000000E+00  0.0000000000E+00  0.5336001185E+02 -0.5926070314E+02  0.4894892083E+02  0.0000000000E+00  0.0000000000E+00  0.0000000000E+00  0.9239465710E+01  0.6973765795E+01 -0.5518376563E+00  0.0000000000E+00  0.0000000000E+00  0.0000000000E+00
41  0.2605644357E-03  0.2875149090E-03  0.3030282779E-03  0.9191357900E-04  0.6419129445E-03 -0.5422342046E+00  0.8965758446E+01  0.5614122534E+02 -0.5747698642E+02  0.4899834322E+02  0.5068403333E+02  0.8965758446E+01  0.7354232194E+01 -0.5422342046E+00 -0.5422342046E+00  0.8965758446E+01  0.0000000000E+00  0.0000000000E+00  0.5614122534E+02 -0.5747698642E+02  0.4899834322E+02  0.0000000000E+00  0.0000000000E+00  0.0000000000E+00  0.8965758446E+01  0.7354232194E+01 -0.5422342046E+00  0.0000000000E+00  0.0000000000E+00  0.0000000000E+00
42  0.2641047879E-03  0.2900747126E-03  0.3031043554E-03  0.9790619098E-04  0.6482842498E-03 -0.5397223609E+00  0.8720975861E+01  0.5932377066E+02 -0.5586440396E+02  0.4938207087E+02  0.5177455833E+02  0.8720975861E+01  0.7799488147E+01 -0.5397223609E+00 -0.5397223609E+00  0.8720975861E+01  0.0000000000E+00  0.0000000000E+00  0.5932377066E+02 -0.5586440396E+02  0.4938207087E+02  0.0000000000E+00  0.0000000000E+00  0.0000000000E+00  0.8720975861E+01  0.7799488147E+01 -0.5397223609E+00  0.0000000000E+00  0.0000000000E+00  0.0000000000E+00
43  0.2676068110E-03  0.2920998107E-03  0.3031538030E-03  0.1041310116E-03  0.6545176954E-03 -0.5332437592E+00  0.8485647403E+01  0.6312050837E+02 -0.5446438424E+02  0.4985524300E+02  0.5285458333E+02  0.8485647403E+01  0.8340172404E+01 -0.5332437592E+00 -0.5332437592E+00  0.8485647403E+01  0.0000000000E+00  0.0000000000E+00  0.6312050837E+02 -0.5446438424E+02  0.4985524300E+02  0.0000000000E+00  0.0000000000E+00  0.0000000000E+00  0.8485647403E+01  0.8340172404E+01 -0.5332437592E+00  0.0000000000E+00  0.0000000000E+00  0.0000000000E+00
44  0.2713997794E-03  0.2937687804E-03  0.3035112979E-03  0.1106271272E-03  0.6612498467E-03 -0.5307381282E+00  0.8251190519E+01  0.6718519435E+02 -0.5297792871E+02  0.5047510623E+02  0.5392295833E+02  0.8251190519E+01  0.8931155715E+01 -0.5307381282E+00 -0.5307381282E+00  0.8251190519E+01  0.0000000000E+00  0.0000000000E+00  0.6718519435E+02 -0.5297792871E+02  0.5047510623E+02  0.0000000000E+00  0.0000000000E+00  0.0000000000E+00  0.8251190519E+01  0.8931155715E+01 -0.5307381282E+00  0.0000000000E+00  0.0000000000E+00  0.0000000000E+00
45  0.2754889344E-03  0.2951070591E-03  0.3041520096E-03  0.1173487604E-03  0.6684902060E-03 -0.5297642303E+00  0.8029930732E+01  0.7127790122E+02 -0.5158637605E+02  0.5115988577E+02  0.5501415833E+02  0.8029930732E+01  0.9533214742E+01 -0.5297642303E+00 -0.5297642303E+00  0.8029930732E+01  0.0000000000E+00  0.0000000000E+00  0.7127790122E+02 -0.5158637605E+02  0.5115988577E+02  0.0000000000E+00  0.0000000000E+00  0.0000000000E+00  0.8029930732E+01  0.9533214742E+01 -0.5297642303E+00  0.0000000000E+00  0.0000000000E+00  0.0000000000E+00
46  0.2796256832E-03  0.2960438957E-03  0.3048472128E-03  0.1242334993E-03  0.6756605052E-03 -0.5288044463E+00  0.7812274914E+01  0.7534703014E+02 -0.5022035148E+02  0.5182573547E+02  0.5605378333E+02  0.7812274914E+01  0.1013777325E+02 -0.5288044463E+00 -0.5288044463E+00  0.7812274914E+01  0.0000000000E+00  0.0000000000E+00  0.7534703014E+02 -0.5022035148E+02  0.5182573547E+02  0.0000000000E+00  0.0000000000E+00  0.0000000000E+00  0.7812274914E+01  0.1013777325E+02 -0.5288044463E+00  0.0000000000E+00  0.0000000000E+00  0.0000000000E+00
47  0.2837732313E-03  0.2965538028E-03  0.3055254051E-03  0.1312082882E-03  0.6826438534E-03 -0.5278896465E+00  0.7597852774E+01  0.7942693339E+02 -0.4887627441E+02  0.5247770766E+02  0.5714728333E+02  0.7597852774E+01  0.1074702154E+02 -0.5278896465E+00 -0.5278896465E+00  0.7597852774E+01  0.0000000000E+00  0.0000000000E+00  0.7942693339E+02 -0.4887627441E+02  0.5247770766E+02  0.0000000000E+00  0.0000000000E+00  0.0000000000E+00  0.7597852774E+01  0.1074702154E+02 -0.5278896465E+00  0.0000000000E+00  0.0000000000E+00  0.0000000000E+00
48  0.2878938429E-03  0.2965868945E-03  0.3061014913E-03  0.1381780768E-03  0.6893214502E-03 -0.5270710804E+00  0.7386496493E+01  0.8353964506E+02 -0.4755162080E+02  0.5312011002E+02  0.5823815833E+02  0.7386496493E+01  0.1136217136E+02 -0.5270710804E+00 -0.5270710804E+00  0.7386496493E+01  0.0000000000E+00  0.0000000000E+00  0.8353964506E+02 -0.4755162080E+02  0.5312011002E+02  0.0000000000E+00  0.0000000000E+00  0.0000000000E+00  0.7386496493E+01  0.1136217136E+02 -0.5270710804E+00  0.0000000000E+00  0.0000000000E+00  0.0000000000E+00
49  0.2919623258E-03  0.2960729253E-03  0.3064839215E-03  0.1450271488E-03  0.6956110515E-03 -0.5263882844E+00  0.7178492915E+01  0.8769694324E+02 -0.4624776502E+02  0.5375822327E+02  0.5931768333E+02  0.7178492915E+01  0.1198353904E+02 -0.5263882844E+00 -0.5263882844E+00  0.7178492915E+01  0.0000000000E+00  0.0000000000E+00  0.8769694324E+02 -0.4624776502E+02  0.5375822327E+02  0.0000000000E+00  0.0000000000E+00  0.0000000000E+00  0.7178492915E+01  0.1198353904E+02 -0.5263882844E+00  0.0000000000E+00  0.0000000000E+00  0.0000000000E+00
50  0.2959711864E-03  0.2949267035E-03  0.3065754818E-03  0.1516234332E-03  0.7014905538E-03 -0.5258663949E+00  0.6974425590E+01  0.9189957624E+02 -0.4496884059E+02  0.5439710566E+02  0.6044495833E+02  0.6974425590E+01  0.1261047318E+02 -0.5258663949E+00 -0.5258663949E+00  0.6974425590E+01  0.0000000000E+00  0.0000000000E+00  0.9189957624E+02 -0.4496884059E+02  0.5439710566E+02  0.0000000000E+00  0.0000000000E+00  0.0000000000E+00  0.6974425590E+01  0.1261047318E+02 -0.5258663949E+00  0.0000000000E+00  0.0000000000E+00  0.0000000000E+00
51  0.2999298017E-03  0.2930567198E-03  0.3062729063E-03  0.1578252215E-03  0.7070096030E-03 -0.5255715891E+00  0.6774869148E+01  0.9613526490E+02 -0.4371828007E+02  0.5503935381E+02  0.6152498333E+02  0.6774869148E+01  0.1324089781E+02 -0.5255715891E+00 -0.5255715891E+00  0.6774869148E+01  0.0000000000E+00  0.0000000000E+00  0.9613526490E+02 -0.4371828007E+02  0.5503935381E+02  0.0000000000E+00  0.0000000000E+00  0.0000000000E+00  0.6774869148E+01  0.1324089781E+02 -0.5255715891E+00  0.0000000000E+00  0.0000000000E+00  0.0000000000E+00
52  0.3038750325E-03  0.2903846359E-03  0.3054827345E-03  0.1634915421E-03  0.7123271581E-03 -0.5255109281E+00  0.6580644196E+01  0.1003854635E+03 -0.4250263299E+02  0.5568704150E+02  0.6261898333E+02  0.6580644196E+01  0.1387195688E+02 -0.5255109281E+00 -0.5255109281E+00  0.6580644196E+01  0.0000000000E+00  0.0000000000E+00  0.1003854635E+03 -0.4250263299E+02  0.5568704150E+02  0.0000000000E+00  0.0000000000E+00  0.0000000000E+00  0.6580644196E+01  0.1387195688E+02 -0.5255109281E+00  0.0000000000E+00  0.0000000000E+00  0.0000000000E+00
53  0.3078569139E-03  0.2868598331E-03  0.3041230956E-03  0.1684940737E-03  0.7176891554E-03 -0.5256793155E+00  0.6392255297E+01  0.1046190041E+03 -0.4132525923E+02  0.5633836493E+02  0.6370688333E+02  0.6392255297E+01  0.1449974160E+02 -0.5256793155E+00 -0.5256793155E+00  0.6392255297E+01  0.0000000000E+00  0.0000000000E+00  0.1046190041E+03 -0.4132525923E+02  0.5633836493E+02  0.0000000000E+00  0.0000000000E+00  0.0000000000E+00  0.6392255297E+01  0.1449974160E+02 -0.5256793155E+00  0.0000000000E+00  0.0000000000E+00  0.0000000000E+00
54  0.3119399401E-03  0.2824833489E-03  0.3021477289E-03  0.1727315111E-03  0.7234336353E-03 -0.5260593670E+00  0.6210163713E+01  0.1088025487E+03 -0.4018973280E+02  0.5699054896E+02  0.6479565833E+02  0.6210163713E+01  0.1512004150E+02 -0.5260593670E+00 -0.5260593670E+00  0.6210163713E+01  0.0000000000E+00  0.0000000000E+00  0.1088025487E+03 -0.4018973280E+02  0.5699054896E+02  0.0000000000E+00  0.0000000000E+00  0.0000000000E+00  0.6210163713E+01  0.1512004150E+02 -0.5260593670E+00  0.0000000000E+00  0.0000000000E+00  0.0000000000E+00