TITLE="fun3d_case_title"
VARIABLES="Iteration" "R_1" "R_2" "R_3" "R_4" "R_5" "C_L" "C_D" "C_M_x" "C_M_y" "C_M_z" "Wall Time" "C_x" "C_y" "C_z" "C_Lp" "C_Dp" "C_Lv" "C_Dv" "C_M_xp" "C_M_yp" "C_M_zp" "C_M_xv" "C_M_yv" "C_M_zv" "C_xp" "C_yp" "C_zp" "C_xv" "C_yv" "C_zv"
ZONE  I=100 F=POINT
1  0.3185143352E-03  0.1590389112E-03  0.1855658314E-14  0.8334876156E-05  0.8361001300E-03 -0.6209423439E-02  0.9123943606E-01  0.5958413771E-01 -0.6062709376E+00  0.3557798463E+00  0.9559503125E+01  0.9143937170E-01  0.7898608123E-02 -0.1425810507E-02 -0.6209423439E-02  0.9123943606E-01  0.0000000000E+00  0.0000000000E+00  0.5958413771E-01 -0.6062709376E+00  0.3557798463E+00  0.0000000000E+00  0.0000000000E+00  0.0000000000E+00  0.9143937170E-01  0.7898608123E-02 -0.1425810507E-02  0.0000000000E+00  0.0000000000E+00  0.0000000000E+00
2  0.2761724985E-03  0.1254757622E-03  0.9178000901E-04  0.9363641344E-05  0.7268440402E-03 -0.1297976903E-01  0.1945459079E+00  0.5189013329E-01 -0.1292612687E+01  0.7201849004E+00  0.1059882500E+02  0.1949585981E+00  0.6255984507E-02 -0.2780234588E-02 -0.1297976903E-01  0.1945459079E+00  0.0000000000E+00  0.0000000000E+00  0.5189013329E-01 -0.1292612687E+01  0.7201849004E+00  0.0000000000E+00  0.0000000000E+00  0.0000000000E+00  0.1949585981E+00  0.6255984507E-02 -0.2780234588E-02  0.0000000000E+00  0.0000000000E+00  0.0000000000E+00
3  0.2351186830E-03  0.1106646837E-03  0.1871339990E-03  0.1374180530E-04  0.6205542874E-03 -0.1790106665E-01  0.2713716072E+00  0.3106981996E-01 -0.1802156928E+01  0.9670691726E+00  0.1164200000E+02  0.2719365712E+00  0.2949029435E-02 -0.3674041298E-02 -0.1790106665E-01  0.2713716072E+00  0.0000000000E+00  0.0000000000E+00  0.3106981996E-01 -0.1802156928E+01  0.9670691726E+00  0.0000000000E+00  0.0000000000E+00  0.0000000000E+00  0.2719365712E+00  0.2949029435E-02 -0.3674041298E-02  0.0000000000E+00  0.0000000000E+00  0.0000000000E+00
4  0.2119567303E-03  0.1283427846E-03  0.2545553598E-03  0.1727414100E-04  0.5571157305E-03 -0.1972153449E-01  0.2983061954E+00  0.1104859284E+00 -0.1980893834E+01  0.1060335614E+01  0.1267245885E+02  0.2989295225E+00  0.1342587996E-01 -0.4082366822E-02 -0.1972153449E-01  0.2983061954E+00  0.0000000000E+00  0.0000000000E+00  0.1104859284E+00 -0.1980893834E+01  0.1060335614E+01  0.0000000000E+00  0.0000000000E+00  0.0000000000E+00  0.2989295225E+00  0.1342587996E-01 -0.4082366822E-02  0.0000000000E+00  0.0000000000E+00  0.0000000000E+00
5  0.2126575894E-03  0.1590988090E-03  0.2815740819E-03  0.2328269230E-04  0.5494324818E-03 -0.1852326581E-01  0.2740031475E+00  0.3459546807E+00 -0.1820754976E+01  0.1023267995E+01  0.1376460000E+02  0.2745970686E+00  0.4563376138E-01 -0.4157663575E-02 -0.1852326581E-01  0.2740031475E+00  0.0000000000E+00  0.0000000000E+00  0.3459546807E+00 -0.1820754976E+01  0.1023267995E+01  0.0000000000E+00  0.0000000000E+00  0.0000000000E+00  0.2745970686E+00  0.4563376138E-01 -0.4157663575E-02  0.0000000000E+00  0.0000000000E+00  0.0000000000E+00
6  0.2294387654E-03  0.1951861153E-03  0.2920319517E-03  0.3687061139E-04  0.5805936479E-03 -0.1564005876E-01  0.2191632330E+00  0.6922110078E+00 -0.1455624437E+01  0.9277672854E+00  0.1482880000E+02  0.2196814149E+00  0.9264994996E-01 -0.4148507234E-02 -0.1564005876E-01  0.2191632330E+00  0.0000000000E+00  0.0000000000E+00  0.6922110078E+00 -0.1455624437E+01  0.9277672854E+00  0.0000000000E+00  0.0000000000E+00  0.0000000000E+00  0.2196814149E+00  0.9264994996E-01 -0.4148507234E-02  0.0000000000E+00  0.0000000000E+00  0.0000000000E+00
7  0.2298308625E-03  0.2286424586E-03  0.3034775762E-03  0.5557570248E-04  0.5637784637E-03 -0.1292132101E-01  0.1622359735E+00  0.1100382396E+01 -0.1072318775E+01  0.8667571690E+00  0.1589355000E+02  0.1626898845E+00  0.1482331547E+00 -0.4412837975E-02 -0.1292132101E-01  0.1622359735E+00  0.0000000000E+00  0.0000000000E+00  0.1100382396E+01 -0.1072318775E+01  0.8667571690E+00  0.0000000000E+00  0.0000000000E+00  0.0000000000E+00  0.1626898845E+00  0.1482331547E+00 -0.4412837975E-02  0.0000000000E+00  0.0000000000E+00  0.0000000000E+00
8  0.2290379720E-03  0.2577135130E-03  0.3075235216E-03  0.8102349174E-04  0.5410890701E-03 -0.1140983134E-01  0.1186371028E+00  0.1521766256E+01 -0.7763664322E+00  0.8723180629E+00  0.1694805000E+02  0.1190716592E+00  0.2073338234E+00 -0.5185208341E-02 -0.1140983134E-01  0.1186371028E+00  0.0000000000E+00  0.0000000000E+00  0.1521766256E+01 -0.7763664322E+00  0.8723180629E+00  0.0000000000E+00  0.0000000000E+00  0.0000000000E+00  0.1190716592E+00  0.2073338234E+00 -0.5185208341E-02  0.0000000000E+00  0.0000000000E+00  0.0000000000E+00
9  0.2430546045E-03  0.2793967527E-03  0.3034942974E-03  0.1111035053E-03  0.5625564832E-03 -0.1103986862E-01  0.8881460591E-01  0.1922312932E+01 -0.5755187748E+00  0.9188571909E+00  0.1802742500E+02  0.8927067066E-01  0.2655676105E+00 -0.6376541533E-02 -0.1103986862E-01  0.8881460591E-01  0.0000000000E+00  0.0000000000E+00  0.1922312932E+01 -0.5755187748E+00  0.9188571909E+00  0.0000000000E+00  0.0000000000E+00  0.0000000000E+00  0.8927067066E-01  0.2655676105E+00 -0.6376541533E-02  0.0000000000E+00  0.0000000000E+00  0.0000000000E+00
10  0.2626533815E-03  0.2865258175E-03  0.2967149697E-03  0.1377468393E-03  0.6005566461E-03 -0.1104576776E-01  0.6665649673E-01  0.2270551065E+01 -0.4314766237E+00  0.9688887750E+00  0.1914672500E+02  0.6714323714E-01  0.3191159354E+00 -0.7542098427E-02 -0.1104576776E-01  0.6665649673E-01  0.0000000000E+00  0.0000000000E+00  0.2270551065E+01 -0.4314766237E+00  0.9688887750E+00  0.0000000000E+00  0.0000000000E+00  0.0000000000E+00  0.6714323714E-01  0.3191159354E+00 -0.7542098427E-02  0.0000000000E+00  0.0000000000E+00  0.0000000000E+00
11  0.2803358186E-03  0.2809306345E-03  0.2933226510E-03  0.1569487648E-03  0.6375099404E-03 -0.1028954344E-01  0.4761893846E-01  0.2535660128E+01 -0.3139919102E+00  0.9930647125E+00  0.2022642500E+02  0.4809219146E-01  0.3644851080E+00 -0.7783259294E-02 -0.1028954344E-01  0.4761893846E-01  0.0000000000E+00  0.0000000000E+00  0.2535660128E+01 -0.3139919102E+00  0.9930647125E+00  0.0000000000E+00  0.0000000000E+00  0.0000000000E+00  0.4809219146E-01  0.3644851080E+00 -0.7783259294E-02  0.0000000000E+00  0.0000000000E+00  0.0000000000E+00
12  0.2909640033E-03  0.2856455526E-03  0.3133725772E-03  0.1826149424E-03  0.6679554170E-03 -0.9167116542E-02  0.3048199405E-01  0.2664639871E+01 -0.2087844476E+00  0.9761479129E+00  0.2128805000E+02  0.3091998935E-01  0.3878824967E+00 -0.7559249021E-02 -0.9167116542E-02  0.3048199405E-01  0.0000000000E+00  0.0000000000E+00  0.2664639871E+01 -0.2087844476E+00  0.9761479129E+00  0.0000000000E+00  0.0000000000E+00  0.0000000000E+00  0.3091998935E-01  0.3878824967E+00 -0.7559249021E-02  0.0000000000E+00  0.0000000000E+00  0.0000000000E+00
13  0.2874068942E-03  0.3191678341E-03  0.3627602461E-03  0.2300045517E-03  0.6688644462E-03 -0.6961326244E-02  0.1587743953E-01  0.2596459544E+01 -0.1200497856E+00  0.9048907267E+00  0.2240450000E+02  0.1622000771E-01  0.3801994462E+00 -0.6120825008E-02 -0.6961326244E-02  0.1587743953E-01  0.0000000000E+00  0.0000000000E+00  0.2596459544E+01 -0.1200497856E+00  0.9048907267E+00  0.0000000000E+00  0.0000000000E+00  0.0000000000E+00  0.1622000771E-01  0.3801994462E+00 -0.6120825008E-02  0.0000000000E+00  0.0000000000E+00  0.0000000000E+00
14  0.2694058370E-03  0.3501631273E-03  0.4066312204E-03  0.2796103879E-03  0.6237743927E-03 -0.1693238098E-02  0.6323683687E-02  0.2469105509E+01 -0.7066988214E-01  0.8165120026E+00  0.2348590000E+02  0.6403634533E-02  0.3583026186E+00 -0.1359961541E-02 -0.1693238098E-02  0.6323683687E-02  0.0000000000E+00  0.0000000000E+00  0.2469105509E+01 -0.7066988214E-01  0.8165120026E+00  0.0000000000E+00  0.0000000000E+00  0.0000000000E+00  0.6403634533E-02  0.3583026186E+00 -0.1359961541E-02  0.0000000000E+00  0.0000000000E+00  0.0000000000E+00
15  0.2539620422E-03  0.3561432301E-03  0.4270066544E-03  0.3036449492E-03  0.5829337551E-03  0.7334774401E-03  0.1954619038E-02  0.2265101872E+01 -0.4974584942E-01  0.7188633315E+00  0.2459420000E+02  0.1913553057E-02  0.3218837876E+00  0.8347690912E-03  0.7334774401E-03  0.1954619038E-02  0.0000000000E+00  0.0000000000E+00  0.2265101872E+01 -0.4974584942E-01  0.7188633315E+00  0.0000000000E+00  0.0000000000E+00  0.0000000000E+00  0.1913553057E-02  0.3218837876E+00  0.8347690912E-03  0.0000000000E+00  0.0000000000E+00  0.0000000000E+00
16  0.2542399091E-03  0.3539283373E-03  0.4506934592E-03  0.3105380892E-03  0.6014042259E-03  0.2695259835E-02  0.3010213918E-02  0.2036348612E+01 -0.6136952887E-01  0.6392554658E+00  0.2563155000E+02  0.2865029524E-02  0.2828700032E+00  0.2849108499E-02  0.2695259835E-02  0.3010213918E-02  0.0000000000E+00  0.0000000000E+00  0.2036348612E+01 -0.6136952887E-01  0.6392554658E+00  0.0000000000E+00  0.0000000000E+00  0.0000000000E+00  0.2865029524E-02  0.2828700032E+00  0.2849108499E-02  0.0000000000E+00  0.0000000000E+00  0.0000000000E+00
17  0.2553135639E-03  0.3569149792E-03  0.5093649668E-03  0.3328822556E-03  0.6154837052E-03  0.3186572790E-02  0.8479177067E-02  0.1883551454E+01 -0.9760145261E-01  0.6020124953E+00  0.2673190000E+02  0.8300784316E-02  0.2558858292E+00  0.3625971542E-02  0.3186572790E-02  0.8479177067E-02  0.0000000000E+00  0.0000000000E+00  0.1883551454E+01 -0.9760145261E-01  0.6020124953E+00  0.0000000000E+00  0.0000000000E+00  0.0000000000E+00  0.8300784316E-02  0.2558858292E+00  0.3625971542E-02  0.0000000000E+00  0.0000000000E+00  0.0000000000E+00
18  0.2505968119E-03  0.3561053710E-03  0.5790784164E-03  0.3735659160E-03  0.5903849846E-03  0.1957898167E-02  0.1636737159E-01  0.1853519977E+01 -0.1437194146E+00  0.6144844320E+00  0.2785325000E+02  0.1624247220E-01  0.2485193347E+00  0.2811816979E-02  0.1957898167E-02  0.1636737159E-01  0.0000000000E+00  0.0000000000E+00  0.1853519977E+01 -0.1437194146E+00  0.6144844320E+00  0.0000000000E+00  0.0000000000E+00  0.0000000000E+00  0.1624247220E-01  0.2485193347E+00  0.2811816979E-02  0.0000000000E+00  0.0000000000E+00  0.0000000000E+00
19  0.2362469603E-03  0.3411389128E-03  0.6202315293E-03  0.4014576993E-03  0.5398452270E-03 -0.5345968132E-03  0.2447274177E-01  0.1941929831E+01 -0.1870882273E+00  0.6666511762E+00  0.2906165000E+02  0.2446718137E-01  0.2608188412E+00  0.7469401757E-03 -0.5345968132E-03  0.2447274177E-01  0.0000000000E+00  0.0000000000E+00  0.1941929831E+01 -0.1870882273E+00  0.6666511762E+00  0.0000000000E+00  0.0000000000E+00  0.0000000000E+00  0.2446718137E-01  0.2608188412E+00  0.7469401757E-03  0.0000000000E+00  0.0000000000E+00  0.0000000000E+00
20  0.2186047183E-03  0.3105817949E-03  0.6254441646E-03  0.4011522578E-03  0.5063208509E-03 -0.3264724540E-02  0.3087913430E-01  0.2107884315E+01 -0.2182849416E+00  0.7374398711E+00  0.3015970000E+02  0.3100767800E-01  0.2866901955E+00 -0.1644161328E-02 -0.3264724540E-02  0.3087913430E-01  0.0000000000E+00  0.0000000000E+00  0.2107884315E+01 -0.2182849416E+00  0.7374398711E+00  0.0000000000E+00  0.0000000000E+00  0.0000000000E+00  0.3100767800E-01  0.2866901955E+00 -0.1644161328E-02  0.0000000000E+00  0.0000000000E+00  0.0000000000E+00
21  0.2042077891E-03  0.2800514147E-03  0.6139695847E-03  0.3826469488E-03  0.4923591294E-03 -0.5124103600E-02  0.3443221533E-01  0.2295647739E+01 -0.2335329001E+00  0.8036841076E+00  0.3125095000E+02  0.3465320204E-01  0.3169234592E+00 -0.3315038280E-02 -0.5124103600E-02  0.3443221533E-01  0.0000000000E+00  0.0000000000E+00  0.2295647739E+01 -0.2335329001E+00  0.8036841076E+00  0.0000000000E+00  0.0000000000E+00  0.0000000000E+00  0.3465320204E-01  0.3169234592E+00 -0.3315038280E-02  0.0000000000E+00  0.0000000000E+00  0.0000000000E+00
22  0.1994374068E-03  0.2607394051E-03  0.5983844010E-03  0.3660250406E-03  0.4781405253E-03 -0.5409373814E-02  0.3503896380E-01  0.2468331593E+01 -0.2349507496E+00  0.8514645719E+00  0.3234302969E+02  0.3527404887E-01  0.3457327500E+00 -0.3568162779E-02 -0.5409373814E-02  0.3503896380E-01  0.0000000000E+00  0.0000000000E+00  0.2468331593E+01 -0.2349507496E+00  0.8514645719E+00  0.0000000000E+00  0.0000000000E+00  0.0000000000E+00  0.3527404887E-01  0.3457327500E+00 -0.3568162779E-02  0.0000000000E+00  0.0000000000E+00  0.0000000000E+00
23  0.1942143980E-03  0.2546306496E-03  0.5707412685E-03  0.3528306651E-03  0.4484523433E-03 -0.4396590802E-02  0.3353788623E-01  0.2568379933E+01 -0.2272808823E+00  0.8660159860E+00  0.3346770000E+02  0.3372202351E-01  0.3617000343E+00 -0.2635328081E-02 -0.4396590802E-02  0.3353788623E-01  0.0000000000E+00  0.0000000000E+00  0.2568379933E+01 -0.2272808823E+00  0.8660159860E+00  0.0000000000E+00  0.0000000000E+00  0.0000000000E+00  0.3372202351E-01  0.3617000343E+00 -0.2635328081E-02  0.0000000000E+00  0.0000000000E+00  0.0000000000E+00
24  0.1775958094E-03  0.2565062368E-03  0.5212644957E-03  0.3304997955E-03  0.4114087253E-03 -0.2722726926E-02  0.3102162242E-01  0.2600647346E+01 -0.2159719244E+00  0.8542342995E+00  0.3454980000E+02  0.3112160489E-01  0.3656876002E+00 -0.1095449249E-02 -0.2722726926E-02  0.3102162242E-01  0.0000000000E+00  0.0000000000E+00  0.2600647346E+01 -0.2159719244E+00  0.8542342995E+00  0.0000000000E+00  0.0000000000E+00  0.0000000000E+00  0.3112160489E-01  0.3656876002E+00 -0.1095449249E-02  0.0000000000E+00  0.0000000000E+00  0.0000000000E+00
25  0.1561223009E-03  0.2565063978E-03  0.4555728157E-03  0.2901722871E-03  0.3897788615E-03 -0.1153670269E-02  0.2856036470E-01  0.2584923677E+01 -0.2051931156E+00  0.8297382710E+00  0.3564005000E+02  0.2858160215E-01  0.3614245630E+00  0.3426447937E-03 -0.1153670269E-02  0.2856036470E-01  0.0000000000E+00  0.0000000000E+00  0.2584923677E+01 -0.2051931156E+00  0.8297382710E+00  0.0000000000E+00  0.0000000000E+00  0.0000000000E+00  0.2858160215E-01  0.3614245630E+00  0.3426447937E-03  0.0000000000E+00  0.0000000000E+00  0.0000000000E+00
26  0.1309111887E-03  0.2444278700E-03  0.3887857741E-03  0.2426063358E-03  0.3466483818E-03 -0.4254905717E-04  0.2691929729E-01  0.2560886424E+01 -0.1984634536E+00  0.8079935048E+00  0.3666970000E+02  0.2688463218E-01  0.3555803125E+00  0.1366356420E-02 -0.4254905717E-04  0.2691929729E-01  0.0000000000E+00  0.0000000000E+00  0.2560886424E+01 -0.1984634536E+00  0.8079935048E+00  0.0000000000E+00  0.0000000000E+00  0.0000000000E+00  0.2688463218E-01  0.3555803125E+00  0.1366356420E-02  0.0000000000E+00  0.0000000000E+00  0.0000000000E+00
27  0.1130593874E-03  0.2204169701E-03  0.3259901760E-03  0.2025990659E-03  0.2922088657E-03 -0.8408427632E-05  0.2610362740E-01  0.2536660651E+01 -0.1939270666E+00  0.7957853843E+00  0.3778545000E+02  0.2606829335E-01  0.3506079981E+00  0.1357761397E-02 -0.8408427632E-05  0.2610362740E-01  0.0000000000E+00  0.0000000000E+00  0.2536660651E+01 -0.1939270666E+00  0.7957853843E+00  0.0000000000E+00  0.0000000000E+00  0.0000000000E+00  0.2606829335E-01  0.3506079981E+00  0.1357761397E-02  0.0000000000E+00  0.0000000000E+00  0.0000000000E+00
28  0.1019017946E-03  0.1914978190E-03  0.2675474938E-03  0.1732880835E-03  0.2525298465E-03 -0.5362894911E-03  0.2603795503E-01  0.2529983428E+01 -0.1917654139E+00  0.7957367641E+00  0.3890492500E+02  0.2603033814E-01  0.3495346199E+00  0.8271667499E-03 -0.5362894911E-03  0.2603795503E-01  0.0000000000E+00  0.0000000000E+00  0.2529983428E+01 -0.1917654139E+00  0.7957367641E+00  0.0000000000E+00  0.0000000000E+00  0.0000000000E+00  0.2603033814E-01  0.3495346199E+00  0.8271667499E-03  0.0000000000E+00  0.0000000000E+00  0.0000000000E+00
29  0.8594880025E-04  0.1638328735E-03  0.2135515097E-03  0.1505597036E-03  0.2143953251E-03 -0.1191539745E-02  0.2632437715E-01  0.2545135213E+01 -0.1915367413E+00  0.8049642314E+00  0.4005570000E+02  0.2635066088E-01  0.3520701843E+00  0.1878046696E-03 -0.1191539745E-02  0.2632437715E-01  0.0000000000E+00  0.0000000000E+00  0.2545135213E+01 -0.1915367413E+00  0.8049642314E+00  0.0000000000E+00  0.0000000000E+00  0.0000000000E+00  0.2635066088E-01  0.3520701843E+00  0.1878046696E-03  0.0000000000E+00  0.0000000000E+00  0.0000000000E+00
30  0.6830726744E-04  0.1399721081E-03  0.1687216339E-03  0.1249305691E-03  0.1814301918E-03 -0.1648603344E-02  0.2675696841E-01  0.2574026012E+01 -0.1927951792E+00  0.8169772710E+00  0.4116392500E+02  0.2680658015E-01  0.3567478887E+00 -0.2459924627E-03 -0.1648603344E-02  0.2675696841E-01  0.0000000000E+00  0.0000000000E+00  0.2574026012E+01 -0.1927951792E+00  0.8169772710E+00  0.0000000000E+00  0.0000000000E+00  0.0000000000E+00  0.2680658015E-01  0.3567478887E+00 -0.2459924627E-03  0.0000000000E+00  0.0000000000E+00  0.0000000000E+00
31  0.5357963195E-04  0.1179150870E-03  0.1337979430E-03  0.9950163860E-04  0.1473910711E-03 -0.1676206258E-02  0.2706130347E-01  0.2606200475E+01 -0.1941110787E+00  0.8269909789E+00  0.4227055000E+02  0.2711194276E-01  0.3619561344E+00 -0.2576298808E-03 -0.1676206258E-02  0.2706130347E-01  0.0000000000E+00  0.0000000000E+00  0.2606200475E+01 -0.1941110787E+00  0.8269909789E+00  0.0000000000E+00  0.0000000000E+00  0.0000000000E+00  0.2711194276E-01  0.3619561344E+00 -0.2576298808E-03  0.0000000000E+00  0.0000000000E+00  0.0000000000E+00
32  0.4471276616E-04  0.9622130940E-04  0.1072259351E-03  0.8071258085E-04  0.1183994205E-03 -0.1502621702E-02  0.2739300581E-01  0.2635740032E+01 -0.1962771577E+00  0.8334376500E+00  0.4339192500E+02  0.2743410579E-01  0.3661709624E+00 -0.6692325764E-04 -0.1502621702E-02  0.2739300581E-01  0.0000000000E+00  0.0000000000E+00  0.2635740032E+01 -0.1962771577E+00  0.8334376500E+00  0.0000000000E+00  0.0000000000E+00  0.0000000000E+00  0.2743410579E-01  0.3661709624E+00 -0.6692325764E-04  0.0000000000E+00  0.0000000000E+00  0.0000000000E+00
33  0.3852735087E-04  0.7672804698E-04  0.8685610551E-04  0.6871302058E-04  0.9864878291E-04 -0.1117901963E-02  0.2747545084E-01  0.2658007572E+01 -0.1964977661E+00  0.8350988889E+00  0.4445430000E+02  0.2749630316E-01  0.3685953409E+00  0.3215840759E-03 -0.1117901963E-02  0.2747545084E-01  0.0000000000E+00  0.0000000000E+00  0.2658007572E+01 -0.1964977661E+00  0.8350988889E+00  0.0000000000E+00  0.0000000000E+00  0.0000000000E+00  0.2749630316E-01  0.3685953409E+00  0.3215840759E-03  0.0000000000E+00  0.0000000000E+00  0.0000000000E+00
34  0.3160625699E-04  0.6080751494E-04  0.7162219448E-04  0.5907418633E-04  0.8322432702E-04 -0.9524268082E-03  0.2762590820E-01  0.2659736938E+01 -0.1980170584E+00  0.8337531766E+00  0.4558400000E+02  0.2763789402E-01  0.3688256718E+00  0.4947067825E-03 -0.9524268082E-03  0.2762590820E-01  0.0000000000E+00  0.0000000000E+00  0.2659736938E+01 -0.1980170584E+00  0.8337531766E+00  0.0000000000E+00  0.0000000000E+00  0.0000000000E+00  0.2763789402E-01  0.3688256718E+00  0.4947067825E-03  0.0000000000E+00  0.0000000000E+00  0.0000000000E+00
35  0.2589605648E-04  0.4868309397E-04  0.6053118182E-04  0.4935385198E-04  0.7032486601E-04 -0.9208628379E-03  0.2774720132E-01  0.2645740324E+01 -0.1999831449E+00  0.8320875739E+00  0.4658950000E+02  0.2775736898E-01  0.3677892514E+00  0.5325754866E-03 -0.9208628379E-03  0.2774720132E-01  0.0000000000E+00  0.0000000000E+00  0.2645740324E+01 -0.1999831449E+00  0.8320875739E+00  0.0000000000E+00  0.0000000000E+00  0.0000000000E+00  0.2775736898E-01  0.3677892514E+00  0.5325754866E-03  0.0000000000E+00  0.0000000000E+00  0.0000000000E+00
36  0.2158735284E-04  0.3948173108E-04  0.5220002607E-04  0.4104038164E-04  0.5782730836E-04 -0.8370814482E-03  0.2782834163E-01  0.2656658955E+01 -0.2004443855E+00  0.8344136641E+00  0.4770270000E+02  0.2783401331E-01  0.3689113145E+00  0.6204886125E-03 -0.8370814482E-03  0.2782834163E-01  0.0000000000E+00  0.0000000000E+00  0.2656658955E+01 -0.2004443855E+00  0.8344136641E+00  0.0000000000E+00  0.0000000000E+00  0.0000000000E+00  0.2783401331E-01  0.3689113145E+00  0.6204886125E-03  0.0000000000E+00  0.0000000000E+00  0.0000000000E+00
37  0.1956324183E-04  0.3155005157E-04  0.4607115726E-04  0.3493992142E-04  0.5077745740E-04 -0.8235698958E-03  0.2777722470E-01  0.2670805324E+01 -0.1999908455E+00  0.8381840093E+00  0.4878392500E+02  0.2778225929E-01  0.3705595309E+00  0.6313063944E-03 -0.8235698958E-03  0.2777722470E-01  0.0000000000E+00  0.0000000000E+00  0.2670805324E+01 -0.1999908455E+00  0.8381840093E+00  0.0000000000E+00  0.0000000000E+00  0.0000000000E+00  0.2778225929E-01  0.3705595309E+00  0.6313063944E-03  0.0000000000E+00  0.0000000000E+00  0.0000000000E+00
38  0.1901404580E-04  0.2512256519E-04  0.4142852704E-04  0.3112223339E-04  0.4867883199E-04 -0.8207669842E-03  0.2775397238E-01  0.2683046771E+01 -0.2000901845E+00  0.8420147687E+00  0.4986965000E+02  0.2775889215E-01  0.3721733524E+00  0.6328885325E-03 -0.8207669842E-03  0.2775397238E-01  0.0000000000E+00  0.0000000000E+00  0.2683046771E+01 -0.2000901845E+00  0.8420147687E+00  0.0000000000E+00  0.0000000000E+00  0.0000000000E+00  0.2775889215E-01  0.3721733524E+00  0.6328885325E-03  0.0000000000E+00  0.0000000000E+00  0.0000000000E+00
39  0.1888924517E-04  0.2073411733E-04  0.3799263202E-04  0.2805544452E-04  0.4881643820E-04 -0.8032839499E-03  0.2767987954E-01  0.2698062142E+01 -0.1993290407E+00  0.8459386139E+00  0.5098190000E+02  0.2768398586E-01  0.3743021420E+00  0.6464698870E-03 -0.8032839499E-03  0.2767987954E-01  0.0000000000E+00  0.0000000000E+00  0.2698062142E+01 -0.1993290407E+00  0.8459386139E+00  0.0000000000E+00  0.0000000000E+00  0.0000000000E+00  0.2768398586E-01  0.3743021420E+00  0.6464698870E-03  0.0000000000E+00  0.0000000000E+00  0.0000000000E+00
40  0.1956270173E-04  0.1820784769E-04  0.3464624963E-04  0.2520991565E-04  0.5077470809E-04  0.2827979871E-03  0.2774768398E-01  0.2711205076E+01 -0.2013270220E+00  0.8447925026E+00  0.5209885000E+02  0.2769485624E-01  0.3770009662E+00  0.1734611997E-02  0.2827979871E-03  0.2774768398E-01  0.0000000000E+00  0.0000000000E+00  0.2711205076E+01 -0.2013270220E+00  0.8447925026E+00  0.0000000000E+00  0.0000000000E+00  0.0000000000E+00  0.2769485624E-01  0.3770009662E+00  0.1734611997E-02  0.0000000000E+00  0.0000000000E+00  0.0000000000E+00
41  0.1690210923E-04  0.1566656231E-04  0.3232159852E-04  0.2293820475E-04  0.4351815150E-04 -0.4287977555E-03  0.2755785033E-01  0.2711877321E+01 -0.1987605376E+00  0.8429107320E+00  0.5316185000E+02  0.2754252480E-01  0.3764682042E+00  0.1014056346E-02 -0.4287977555E-03  0.2755785033E-01  0.0000000000E+00  0.0000000000E+00  0.2711877321E+01 -0.1987605376E+00  0.8429107320E+00  0.0000000000E+00  0.0000000000E+00  0.0000000000E+00  0.2754252480E-01  0.3764682042E+00  0.1014056346E-02  0.0000000000E+00  0.0000000000E+00  0.0000000000E+00
42  0.1818624211E-04  0.1432987682E-04  0.2996763636E-04  0.2094651805E-04  0.4698019233E-04 -0.1248928258E-02  0.2780967486E-01  0.2734113057E+01 -0.1981412188E+00  0.8493778362E+00  0.5419725000E+02  0.2783692652E-01  0.3804864231E+00  0.2082292813E-03 -0.1248928258E-02  0.2780967486E-01  0.0000000000E+00  0.0000000000E+00  0.2734113057E+01 -0.1981412188E+00  0.8493778362E+00  0.0000000000E+00  0.0000000000E+00  0.0000000000E+00  0.2783692652E-01  0.3804864231E+00  0.2082292813E-03  0.0000000000E+00  0.0000000000E+00  0.0000000000E+00
43  0.1709430893E-04  0.1262423724E-04  0.2824735925E-04  0.1904121329E-04  0.4395601255E-04 -0.9611711507E-03  0.2772904177E-01  0.2716828496E+01 -0.1974153861E+00  0.8444114279E+00  0.5527382500E+02  0.2774134390E-01  0.3783033089E+00  0.4913720179E-03 -0.9611711507E-03  0.2772904177E-01  0.0000000000E+00  0.0000000000E+00  0.2716828496E+01 -0.1974153861E+00  0.8444114279E+00  0.0000000000E+00  0.0000000000E+00  0.0000000000E+00  0.2774134390E-01  0.3783033089E+00  0.4913720179E-03  0.0000000000E+00  0.0000000000E+00  0.0000000000E+00
44  0.1691088604E-04  0.1119439742E-04  0.2610497963E-04  0.1811136288E-04  0.4325872837E-04 -0.7110630405E-03  0.2782993134E-01  0.2704372051E+01 -0.1979134711E+00  0.8420035540E+00  0.5636745000E+02  0.2782900556E-01  0.3770689230E+00  0.7464175158E-03 -0.7110630405E-03  0.2782993134E-01  0.0000000000E+00  0.0000000000E+00  0.2704372051E+01 -0.1979134711E+00  0.8420035540E+00  0.0000000000E+00  0.0000000000E+00  0.0000000000E+00  0.2782900556E-01  0.3770689230E+00  0.7464175158E-03  0.0000000000E+00  0.0000000000E+00  0.0000000000E+00
45  0.1712193839E-04  0.1043071816E-04  0.2497301096E-04  0.1731590357E-04  0.4377136411E-04 -0.5880275120E-03  0.2786931569E-01  0.2706354305E+01 -0.1981538634E+00  0.8433079228E+00  0.5742275000E+02  0.2786189674E-01  0.3775647041E+00  0.8713456458E-03 -0.5880275120E-03  0.2786931569E-01  0.0000000000E+00  0.0000000000E+00  0.2706354305E+01 -0.1981538634E+00  0.8433079228E+00  0.0000000000E+00  0.0000000000E+00  0.0000000000E+00  0.2786189674E-01  0.3775647041E+00  0.8713456458E-03  0.0000000000E+00  0.0000000000E+00  0.0000000000E+00
46  0.1837482472E-04  0.1024615175E-04  0.2416038654E-04  0.1654796151E-04  0.4659562985E-04 -0.6415527262E-03  0.2790055737E-01  0.2714133053E+01 -0.1985890090E+00  0.8457643202E+00  0.5850855000E+02  0.2789589690E-01  0.3785921493E+00  0.8195288489E-03 -0.6415527262E-03  0.2790055737E-01  0.0000000000E+00  0.0000000000E+00  0.2714133053E+01 -0.1985890090E+00  0.8457643202E+00  0.0000000000E+00  0.0000000000E+00  0.0000000000E+00  0.2789589690E-01  0.3785921493E+00  0.8195288489E-03  0.0000000000E+00  0.0000000000E+00  0.0000000000E+00
47  0.1871489906E-04  0.1024784739E-04  0.2342612773E-04  0.1554188901E-04  0.4735723903E-04 -0.6434930049E-03  0.2791534167E-01  0.2722333744E+01 -0.1988204530E+00  0.8478822686E+00  0.5954335000E+02  0.2791076249E-01  0.3797495323E+00  0.8183649803E-03 -0.6434930049E-03  0.2791534167E-01  0.0000000000E+00  0.0000000000E+00  0.2722333744E+01 -0.1988204530E+00  0.8478822686E+00  0.0000000000E+00  0.0000000000E+00  0.0000000000E+00  0.2791076249E-01  0.3797495323E+00  0.8183649803E-03  0.0000000000E+00  0.0000000000E+00  0.0000000000E+00
48  0.1845888181E-04  0.9724812436E-05  0.2232128288E-04  0.1469042119E-04  0.4639296486E-04 -0.6541280828E-03  0.2793078795E-01  0.2727791147E+01 -0.1988697149E+00  0.8490949739E+00  0.6066775000E+02  0.2792674419E-01  0.3804846129E+00  0.8085528729E-03 -0.6541280828E-03  0.2793078795E-01  0.0000000000E+00  0.0000000000E+00  0.2727791147E+01 -0.1988697149E+00  0.8490949739E+00  0.0000000000E+00  0.0000000000E+00  0.0000000000E+00  0.2792674419E-01  0.3804846129E+00  0.8085528729E-03  0.0000000000E+00  0.0000000000E+00  0.0000000000E+00
49  0.1848688543E-04  0.9902162256E-05  0.2119554362E-04  0.1384273874E-04  0.4670166360E-04 -0.6543651103E-03  0.2797844093E-01  0.2732402676E+01 -0.1992016706E+00  0.8499772015E+00  0.6172415000E+02  0.2797434428E-01  0.3810219542E+00  0.8108101348E-03 -0.6543651103E-03  0.2797844093E-01  0.0000000000E+00  0.0000000000E+00  0.2732402676E+01 -0.1992016706E+00  0.8499772015E+00  0.0000000000E+00  0.0000000000E+00  0.0000000000E+00  0.2797434428E-01  0.3810219542E+00  0.8108101348E-03  0.0000000000E+00  0.0000000000E+00  0.0000000000E+00
50  0.1881077344E-04  0.1015328225E-04  0.1957240689E-04  0.1295220704E-04  0.4753078090E-04 -0.6393880777E-03  0.2801619362E-01  0.2734892397E+01 -0.1994854002E+00  0.8506322095E+00  0.6281080000E+02  0.2801126138E-01  0.3813966748E+00  0.8277424647E-03 -0.6393880777E-03  0.2801619362E-01  0.0000000000E+00  0.0000000000E+00  0.2734892397E+01 -0.1994854002E+00  0.8506322095E+00  0.0000000000E+00  0.0000000000E+00  0.0000000000E+00  0.2801126138E-01  0.3813966748E+00  0.8277424647E-03  0.0000000000E+00  0.0000000000E+00  0.0000000000E+00
51  0.1868761450E-04  0.9997836597E-05  0.1801724158E-04  0.1183512892E-04  0.4709075229E-04 -0.6154765469E-03  0.2797939450E-01  0.2737411236E+01 -0.1990479360E+00  0.8513395881E+00  0.6389745000E+02  0.2797326126E-01  0.3817392375E+00  0.8496953085E-03 -0.6154765469E-03  0.2797939450E-01  0.0000000000E+00  0.0000000000E+00  0.2737411236E+01 -0.1990479360E+00  0.8513395881E+00  0.0000000000E+00  0.0000000000E+00  0.0000000000E+00  0.2797326126E-01  0.3817392375E+00  0.8496953085E-03  0.0000000000E+00  0.0000000000E+00  0.0000000000E+00
52  0.1939333794E-04  0.9931270573E-05  0.1646651722E-04  0.1110831963E-04  0.4878919835E-04 -0.5990804322E-03  0.2800643548E-01  0.2739576860E+01 -0.1992807867E+00  0.8520625637E+00  0.6498312500E+02  0.2799940708E-01  0.3820602569E+00  0.8674841686E-03 -0.5990804322E-03  0.2800643548E-01  0.0000000000E+00  0.0000000000E+00  0.2739576860E+01 -0.1992807867E+00  0.8520625637E+00  0.0000000000E+00  0.0000000000E+00  0.0000000000E+00  0.2799940708E-01  0.3820602569E+00  0.8674841686E-03  0.0000000000E+00  0.0000000000E+00  0.0000000000E+00
53  0.1956292043E-04  0.9938330194E-05  0.1498991117E-04  0.9846462533E-05  0.4925129772E-04 -0.5886265863E-03  0.2804241281E-01  0.2742558152E+01 -0.1994767843E+00  0.8529071554E+00  0.6604075000E+02  0.2803478800E-01  0.3824613733E+00  0.8798065959E-03 -0.5886265863E-03  0.2804241281E-01  0.0000000000E+00  0.0000000000E+00  0.2742558152E+01 -0.1994767843E+00  0.8529071554E+00  0.0000000000E+00  0.0000000000E+00  0.0000000000E+00  0.2803478800E-01  0.3824613733E+00  0.8798065959E-03  0.0000000000E+00  0.0000000000E+00  0.0000000000E+00
54  0.1906414834E-04  0.9714301005E-05  0.1338464595E-04  0.9158866668E-05  0.4803934179E-04 -0.5835586753E-03  0.2808234087E-01  0.2744514576E+01 -0.1998287933E+00  0.8535651698E+00  0.6715545000E+02  0.2807439609E-01  0.3827587613E+00  0.8869572343E-03 -0.5835586753E-03  0.2808234087E-01  0.0000000000E+00  0.0000000000E+00  0.2744514576E+01 -0.1998287933E+00  0.8535651698E+00  0.0000000000E+00  0.0000000000E+00  0.0000000000E+00  0.2807439609E-01  0.3827587613E+00  0.8869572343E-03  0.0000000000E+00  0.0000000000E+00  0.0000000000E+00