title="tecplot geometry and solution file"
variables=x y z neg_vol_node
zone t="processor 141",, solutiontime= 0.1300000E+02, strandid=0, n=1095, e=4661, f=feblock, et=tetrahedron
  0.238447327093E+01  0.239072593002E+01  0.252810102964E+01  0.233180774973E+01  0.249699557463E+01  0.250704854269E+01  0.266086876383E+01
  0.260159254169E+01  0.262348266323E+01  0.243743341598E+01  0.244736115685E+01  0.254799108815E+01  0.262175893199E+01  0.260060357478E+01
  0.268443460832E+01  0.268682677040E+01  0.258102137554E+01  0.274384124457E+01  0.268923061203E+01  0.273295125302E+01  0.274738093717E+01
  0.269613742663E+01  0.241945016063E+01  0.254400552127E+01  0.244992888374E+01  0.259097262438E+01  0.255788208899E+01  0.268355408120E+01
  0.264190340406E+01  0.273285647998E+01  0.271490644551E+01  0.268280215585E+01  0.278989572062E+01  0.279718402216E+01  0.278665903046E+01
  0.283077932518E+01  0.288266530819E+01  0.266137467606E+01  0.272182581268E+01  0.281511130851E+01  0.280772980940E+01  0.276464427964E+01
  0.282409537307E+01  0.291516746754E+01  0.256438469449E+01  0.242654969282E+01  0.258020943249E+01  0.277238953492E+01  0.269189066360E+01
  0.274773767242E+01  0.282448350201E+01  0.292474100391E+01  0.299151059246E+01  0.274915339781E+01  0.281065717587E+01  0.283516104991E+01
  0.287915947738E+01  0.267310301300E+01  0.289997967254E+01  0.298257567722E+01  0.279553471422E+01  0.293216714142E+01  0.301283291476E+01
  0.288890894038E+01  0.286468779595E+01  0.287118459703E+01  0.294934387934E+01  0.294260677309E+01  0.305119101788E+01  0.298949212940E+01
  0.307463151190E+01  0.278310940447E+01  0.277664951205E+01  0.288850618919E+01  0.289520767128E+01  0.291806147869E+01  0.289678883511E+01
  0.261984613538E+01  0.293458152536E+01  0.284816833997E+01  0.304316453866E+01  0.297938827267E+01  0.308076523295E+01  0.312386579576E+01
  0.310996461375E+01  0.309670117920E+01  0.310229841533E+01  0.314556706520E+01  0.323129650815E+01  0.285341291780E+01  0.288311899520E+01
  0.291806806585E+01  0.295267145507E+01  0.293518780695E+01  0.298379515375E+01  0.299251697254E+01  0.300339185442E+01  0.261485764183E+01
  0.302108138570E+01  0.310118719005E+01  0.344569979802E+01  0.317156389080E+01  0.340891944550E+01  0.308025306250E+01  0.312577906463E+01
  0.295257308386E+01  0.298952174378E+01  0.287568328389E+01  0.286755906521E+01  0.292787066732E+01  0.294554924669E+01  0.297676414138E+01
  0.294064939075E+01  0.302707154333E+01  0.304655067943E+01  0.307813562254E+01  0.302549657906E+01  0.309839157132E+01  0.308837777280E+01
  0.311774686811E+01  0.309619163144E+01  0.317754860385E+01  0.323959132505E+01  0.308930410466E+01  0.306281717309E+01  0.307209593948E+01
  0.307497333664E+01  0.312581285104E+01  0.287433200438E+01  0.295985126868E+01  0.285791248058E+01  0.311409101185E+01  0.302456021327E+01
  0.312170301523E+01  0.313506735529E+01  0.302197728275E+01  0.325373687137E+01  0.325520509330E+01  0.326527193904E+01  0.326241841789E+01
  0.330938368729E+01  0.317441577720E+01  0.326796941554E+01  0.332811994169E+01  0.315965683330E+01  0.328721081450E+01  0.320983829046E+01
  0.342135543034E+01  0.338698975660E+01  0.335786589981E+01  0.293429856563E+01  0.298053924386E+01  0.301546807427E+01  0.299357658614E+01
  0.301602053741E+01  0.299636902487E+01  0.308653614970E+01  0.301280936260E+01  0.300773422423E+01  0.305396349041E+01  0.305361202628E+01
  0.303491591296E+01  0.303192705132E+01  0.305191082108E+01  0.306396792729E+01  0.326849686009E+01  0.349431505435E+01  0.346160845142E+01
  0.319606726830E+01  0.305386725146E+01  0.294571582469E+01  0.294112000009E+01  0.296576780952E+01  0.298754670878E+01  0.303559248831E+01
  0.300895384541E+01  0.303072970046E+01  0.299744335866E+01  0.305085375235E+01  0.309131007992E+01  0.309986118335E+01  0.298956469621E+01
  0.300775079670E+01  0.308028625250E+01  0.310935605818E+01  0.316547701290E+01  0.317383530770E+01  0.317703368214E+01  0.318622353226E+01
  0.305675503294E+01  0.301222883711E+01  0.306044593680E+01  0.307662618091E+01  0.310343434754E+01  0.314158160299E+01  0.310542680545E+01
  0.323816945905E+01  0.314743521349E+01  0.311933835594E+01  0.328604019511E+01  0.321378029350E+01  0.321200477657E+01  0.336233252170E+01
  0.327917732527E+01  0.325183461646E+01  0.331658655656E+01  0.311372302668E+01  0.313250012373E+01  0.313155372746E+01  0.310980427135E+01
  0.311346424217E+01  0.311921407299E+01  0.311075518415E+01  0.318532900416E+01  0.319330382821E+01  0.330901974279E+01  0.329533788326E+01
  0.308676471735E+01  0.345650983615E+01  0.327262641155E+01  0.330349474976E+01  0.324793206175E+01  0.322583689542E+01  0.326641050117E+01
  0.343215082092E+01  0.336731446325E+01  0.336766595354E+01  0.326569851278E+01  0.350931645026E+01  0.346762320104E+01  0.302432360735E+01
  0.306234276850E+01  0.305760723703E+01  0.305802240828E+01  0.313256287036E+01  0.312947723710E+01  0.315263595841E+01  0.309376808992E+01
  0.310334020033E+01  0.304807238733E+01  0.305285811317E+01  0.303757760519E+01  0.304926057673E+01  0.307959190017E+01  0.308444630744E+01
  0.307470843230E+01  0.309013738576E+01  0.313237287043E+01  0.306813273391E+01  0.303785453482E+01  0.307299863541E+01  0.309466650170E+01
  0.309917222376E+01  0.306802681662E+01  0.309515291192E+01  0.302651103298E+01  0.303646814037E+01  0.304060455374E+01  0.304992675322E+01
  0.304267887626E+01  0.306890058364E+01  0.304757092156E+01  0.312740296049E+01  0.311559245889E+01  0.308155966628E+01  0.307485297141E+01
  0.318434996922E+01  0.314474366696E+01  0.313740947621E+01  0.320592698125E+01  0.318314165976E+01  0.318787572228E+01  0.313560915094E+01
  0.310868399522E+01  0.316915860893E+01  0.312623565710E+01  0.317554853107E+01  0.321404050738E+01  0.324351314902E+01  0.324323298902E+01
  0.319235387472E+01  0.323573255300E+01  0.319724249835E+01  0.319833756915E+01  0.309057769851E+01  0.308677821594E+01  0.309095909732E+01
  0.312127612945E+01  0.308309877047E+01  0.315166867370E+01  0.311664974213E+01  0.334592105021E+01  0.318056675576E+01  0.329172285821E+01
  0.317885777585E+01  0.315286709610E+01  0.318211409375E+01  0.336448935511E+01  0.336414903691E+01  0.319738713415E+01  0.322380226379E+01
  0.330645335614E+01  0.324498524214E+01  0.344685271320E+01  0.329528516763E+01  0.337834725909E+01  0.316772461328E+01  0.317945708614E+01
  0.315475013939E+01  0.315992248089E+01  0.315886586294E+01  0.312369230443E+01  0.310124875786E+01  0.310662305783E+01  0.313435449294E+01
  0.315267793412E+01  0.312919199342E+01  0.313880209249E+01  0.316058686016E+01  0.311224111454E+01  0.314625431573E+01  0.322842786026E+01
  0.318394287051E+01  0.318215839312E+01  0.323631790471E+01  0.311701766454E+01  0.316230753865E+01  0.315727696289E+01  0.330125679500E+01
  0.329118231509E+01  0.325035709155E+01  0.328438145600E+01  0.334886270692E+01  0.324573040771E+01  0.320044787522E+01  0.323923690931E+01
  0.323855374767E+01  0.331995415986E+01  0.327133911441E+01  0.334547278332E+01  0.347534223078E+01  0.334388317186E+01  0.341043572984E+01
  0.333336830848E+01  0.342549828960E+01  0.354500058871E+01  0.358406114476E+01  0.373475454029E+01  0.357044964801E+01  0.347544215280E+01
  0.347563464044E+01  0.338587047891E+01  0.307883624059E+01  0.312720947987E+01  0.316733383492E+01  0.315666272174E+01  0.315329853487E+01
  0.321337216956E+01  0.311090086920E+01  0.310595782575E+01  0.312889250525E+01  0.312327006354E+01  0.315204395995E+01  0.315975846452E+01
  0.311779444572E+01  0.314036174356E+01  0.313459945314E+01  0.314325278171E+01  0.311222465975E+01  0.311354322255E+01  0.315518368889E+01
  0.315753295251E+01  0.314527257702E+01  0.318155846221E+01  0.311689657499E+01  0.321868377109E+01  0.315135840814E+01  0.315483252901E+01
  0.316967476732E+01  0.320728209654E+01  0.320698926823E+01  0.324414382833E+01  0.312503475627E+01  0.317132503528E+01  0.313096637283E+01
  0.315910193256E+01  0.311545750689E+01  0.312154246870E+01  0.319830090783E+01  0.317633466015E+01  0.323110148718E+01  0.328322761306E+01
  0.320769094321E+01  0.321887699217E+01  0.319933805460E+01  0.327634727637E+01  0.326155343908E+01  0.323634383499E+01  0.318864700402E+01
  0.320790644684E+01  0.321606093114E+01  0.323505774394E+01  0.313777156346E+01  0.315748180442E+01  0.315173350041E+01  0.316326585958E+01
  0.314594584196E+01  0.314026758459E+01  0.327186878030E+01  0.336573353010E+01  0.330098125443E+01  0.319314165487E+01  0.324836410580E+01
  0.324772583812E+01  0.321903205765E+01  0.327551249917E+01  0.323204152397E+01  0.330438641570E+01  0.330310264118E+01  0.326506512096E+01
  0.338042089792E+01  0.318352687243E+01  0.317339705873E+01  0.313651053881E+01  0.314199446629E+01  0.316497626932E+01  0.313475737219E+01
  0.314757652674E+01  0.317013025254E+01  0.319039571649E+01  0.315321349471E+01  0.317135704365E+01  0.323733079111E+01  0.321233334648E+01
  0.319596481323E+01  0.318275032507E+01  0.317629891950E+01  0.319993192803E+01  0.322755774246E+01  0.317083308776E+01  0.320616679917E+01
  0.323751577337E+01  0.313710687113E+01  0.316330914794E+01  0.319209428881E+01  0.317016974855E+01  0.320109292119E+01  0.319323791337E+01
  0.318714525525E+01  0.320443329811E+01  0.329631610615E+01  0.326592595895E+01  0.331476571077E+01  0.328786477208E+01  0.324434773640E+01
  0.334297169507E+01  0.327141696143E+01  0.328970406277E+01  0.339922362639E+01  0.326399614276E+01  0.326200142068E+01  0.323732311476E+01
  0.321410097393E+01  0.324137431594E+01  0.331247141306E+01  0.331020757737E+01  0.336291919268E+01  0.333934022124E+01  0.335397611051E+01
  0.340827973894E+01  0.341917025316E+01  0.338221667285E+01  0.329146363225E+01  0.339656787680E+01  0.348728614353E+01  0.360081588805E+01
  0.336579002434E+01  0.319903093250E+01  0.317314333681E+01  0.315733828813E+01  0.317631382631E+01  0.325157246529E+01  0.322213798378E+01
  0.314598646895E+01  0.315163752064E+01  0.315885980351E+01  0.316456172049E+01  0.316055785774E+01  0.318294744719E+01  0.316915255464E+01
  0.317512118921E+01  0.318116049355E+01  0.322526778272E+01  0.324407259427E+01  0.321597823524E+01  0.325188139017E+01  0.318624732682E+01
  0.321191017168E+01  0.320534283404E+01  0.320179058150E+01  0.317460528711E+01  0.318794732788E+01  0.316881899471E+01  0.316307686301E+01
  0.319542291562E+01  0.319892805611E+01  0.324037554677E+01  0.328035851658E+01  0.320959667615E+01  0.320533791441E+01  0.322355178352E+01
  0.321183359760E+01  0.325171633374E+01  0.318042333272E+01  0.320092480482E+01  0.319503348956E+01  0.319347489016E+01  0.318762330708E+01
  0.327548341222E+01  0.327970631227E+01  0.326167295556E+01  0.324606256647E+01  0.322616979204E+01  0.324307820546E+01  0.322335481789E+01
  0.322264267357E+01  0.326039504350E+01  0.324646367527E+01  0.323678210613E+01  0.329186013509E+01  0.333258676458E+01  0.321354053331E+01
  0.326070250293E+01  0.324042870750E+01  0.327518700959E+01  0.320011330921E+01  0.321374900305E+01  0.327157939839E+01  0.333023002176E+01
  0.331254095285E+01  0.317361073079E+01  0.318291516408E+01  0.314930324894E+01  0.315347816898E+01  0.315907144337E+01  0.315489384458E+01
  0.316146503939E+01  0.316468747565E+01  0.316707367017E+01  0.317971139225E+01  0.321058300316E+01  0.322020952231E+01  0.319892709468E+01
  0.322118714927E+01  0.319312920180E+01  0.320470271221E+01  0.318707873792E+01  0.318721118455E+01  0.317040812066E+01  0.317193789483E+01
  0.316620981834E+01  0.318243053833E+01  0.317615172558E+01  0.317280670905E+01  0.317855316855E+01  0.318199433906E+01  0.319292610466E+01
  0.322006347584E+01  0.323566890894E+01  0.320608690667E+01  0.319927352778E+01  0.320532840803E+01  0.322201225796E+01  0.320995611392E+01
  0.320401087235E+01  0.327693435829E+01  0.329057030526E+01  0.327212127606E+01  0.333022271617E+01  0.329579998877E+01  0.325386685680E+01
  0.323499734539E+01  0.323638270032E+01  0.322896469054E+01  0.336156034027E+01  0.323362763641E+01  0.322715218957E+01  0.321890056819E+01
  0.321706675179E+01  0.322299157002E+01  0.323712264952E+01  0.323469204526E+01  0.323043798613E+01  0.322875059854E+01  0.322449505719E+01
  0.323118201044E+01  0.325414103252E+01  0.330620756122E+01  0.330651888286E+01  0.329480140375E+01  0.335594203699E+01  0.332523318089E+01
  0.333810686955E+01  0.329099562297E+01  0.325228322404E+01  0.317605204431E+01  0.317028328146E+01  0.317765990954E+01  0.322768051115E+01
  0.319879931135E+01  0.319212857080E+01  0.319805882313E+01  0.322806372758E+01  0.319932789541E+01  0.321265456146E+01  0.320679509408E+01
  0.321106093299E+01  0.322175501990E+01  0.320519359035E+01  0.318183250024E+01  0.318768837214E+01  0.318345856142E+01  0.319010466952E+01
  0.319350135110E+01  0.318925953712E+01  0.319591537744E+01  0.320857338819E+01  0.322546114671E+01  0.321549307819E+01  0.325479303139E+01
  0.329350216998E+01  0.319926235905E+01  0.320517917299E+01  0.320168029137E+01  0.320760939247E+01  0.320126813922E+01  0.320724181413E+01
  0.320125829346E+01  0.324200113120E+01  0.321796586546E+01  0.321141812233E+01  0.325709354777E+01  0.323387320056E+01  0.326993740080E+01
  0.323439826216E+01  0.327410391192E+01  0.328670333555E+01  0.322611618213E+01  0.321455677540E+01  0.321934960323E+01  0.323464981745E+01
  0.324690587030E+01  0.321349732318E+01  0.321315559205E+01  0.321112770320E+01  0.322280136047E+01  0.321854688016E+01  0.321691691456E+01
  0.324242388441E+01  0.323657977482E+01  0.323398974122E+01  0.326624185112E+01  0.323191326698E+01  0.318789631358E+01  0.320573029999E+01
  0.316094784764E+01  0.316460182577E+01  0.316513267018E+01  0.316655056286E+01  0.318740208822E+01  0.319385410938E+01  0.319974063408E+01
  0.319397830311E+01  0.321180457769E+01  0.320381402298E+01  0.319266719859E+01  0.317679169205E+01  0.317725852795E+01  0.317072512933E+01
  0.317232395511E+01  0.317121494208E+01  0.317809827832E+01  0.318998873321E+01  0.318181128800E+01  0.318420566550E+01  0.318259740924E+01
  0.318885600817E+01  0.318928048172E+01  0.318968508338E+01  0.318308211166E+01  0.318372633179E+01  0.332084069221E+01  0.327576648579E+01
  0.328170344234E+01  0.330170038983E+01  0.327574796513E+01  0.328931677651E+01  0.323081308175E+01  0.322575840435E+01  0.322486040787E+01
  0.322523210139E+01  0.324054867063E+01  0.325687711411E+01  0.325268536231E+01  0.322537327749E+01  0.326853153491E+01  0.326526683357E+01
  0.323928987578E+01  0.326417087128E+01  0.325035231623E+01  0.319098934459E+01  0.319554890353E+01  0.319497282297E+01  0.319536432615E+01
  0.322068472679E+01  0.319544370502E+01  0.320084229698E+01  0.321189422174E+01  0.320746872597E+01  0.324017647507E+01  0.321358740956E+01
  0.320709806388E+01  0.320359381820E+01  0.320037333577E+01  0.325340465532E+01  0.321323720756E+01  0.322955477291E+01  0.320650508999E+01
  0.321900009884E+01  0.321987570148E+01  0.321955981228E+01  0.321356091534E+01  0.322940385168E+01  0.324281778285E+01  0.322000687111E+01
  0.321711962531E+01  0.318013395171E+01  0.318610353574E+01  0.319829649635E+01  0.319388820968E+01  0.320454983440E+01  0.319763543034E+01
  0.319228605007E+01  0.320972496133E+01  0.321068894622E+01  0.320626041708E+01  0.320009036452E+01  0.319846077494E+01  0.324304203338E+01
  0.315586347193E+01  0.315037938610E+01  0.315870876064E+01  0.323163654760E+01  0.315533794685E+01  0.315922917580E+01  0.323201007737E+01
  0.323675087945E+01  0.322283417221E+01  0.321265659523E+01  0.320484723679E+01  0.318477490153E+01  0.319237912928E+01  0.317862762871E+01
  0.318793415261E+01  0.318630914800E+01  0.317252805879E+01  0.318005397624E+01  0.316648718860E+01  0.317405253102E+01  0.317425883177E+01
  0.316040307454E+01  0.316818027950E+01  0.316217875805E+01  0.315616666001E+01  0.293469339104E+01  0.288334680484E+01  0.306375168932E+01
  0.303391822487E+01  0.309584861311E+01  0.317586863713E+01  0.313920946822E+01  0.321142415147E+01  0.300087831979E+01  0.309745021417E+01
  0.299812568860E+01  0.306935067361E+01  0.296003610709E+01  0.303443051484E+01  0.297629727995E+01  0.279686019345E+01  0.290441929624E+01
  0.277646747981E+01  0.270593008597E+01  0.261154808215E+01  0.266689969498E+01  0.254130584309E+01  0.244195277246E+01  0.241184748248E+01
  0.251753892167E+01  0.229032190337E+01  0.226023690161E+01  0.220513008104E+01  0.218705318114E+01  0.227459318669E+01  0.324062062498E+01
  0.323415866193E+01  0.324104708526E+01  0.324241522327E+01  0.314799745006E+01  0.314384175064E+01  0.313834513897E+01  0.313102978258E+01
  0.311825740388E+01  0.323566725980E+01  0.334850652311E+01  0.313983968947E+01  0.319017821739E+01  0.302093621268E+01  0.306222381239E+01
  0.262891058116E+01  0.283191935715E+01  0.272112345739E+01  0.280918161815E+01  0.254053313940E+01  0.239753709762E+01  0.320505987328E+01
  0.324691729096E+01  0.319349286724E+01  0.346159924384E+01  0.334908973412E+01  0.304694758577E+01  0.293125294407E+01  0.259336623041E+01
  0.237910512744E+01  0.216680202431E+01  0.327553635175E+01  0.329667741233E+01  0.316657244535E+01  0.293213859065E+01  0.319207927866E+01
  0.316549359989E+01  0.316802554755E+01  0.317678587404E+01  0.397503999997E+01  0.343489227393E+01  0.324895179986E+01  0.328150941634E+01
  0.312161226239E+01  0.318405398629E+01  0.316983775515E+01  0.323027002584E+01  0.320551936305E+01  0.329516152126E+01  0.338318290106E+01
  0.300747702752E+01  0.327707954866E+01  0.328401020128E+01  0.363806255248E+01  0.377012083371E+01  0.378982084153E+01  0.344318938637E+01
  0.319641023164E+01  0.348511572803E+01  0.353150888360E+01  0.367409697920E+01  0.358189778792E+01  0.358421047080E+01  0.360236053305E+01
  0.350480013161E+01  0.362122673016E+01  0.365182430347E+01  0.342795302230E+01  0.382694483755E+01  0.392755432476E+01  0.318096752185E+01
  0.318904848104E+01  0.316910148232E+01  0.322497818977E+01  0.332527950628E+01  0.320046098894E+01  0.325523412194E+01  0.326151705500E+01
  0.319060756223E+01  0.318539599500E+01  0.319644275219E+01  0.326189556900E+01  0.327402215269E+01  0.298330167388E+01  0.316200243254E+01
  0.299436270059E+01  0.315719535919E+01  0.315300634506E+01  0.198258230405E+01  0.321118333801E+01  0.319266963602E+01  0.334577921619E+01
  0.344927682505E+01  0.224025033448E+01  0.339945410634E+01  0.347380827251E+01  0.353706885341E+01  0.330337704445E+01  0.253755469303E+01
  0.232606325494E+01  0.314795672883E+01  0.349363991039E+01  0.372456979319E+01  0.309831408997E+01  0.322508396104E+01  0.327224047792E+01
  0.329836033394E+01  0.335587991986E+01  0.319918149639E+01  0.325236920196E+01  0.328358234783E+01  0.326520452799E+01  0.325194785084E+01
  0.282313393704E+01  0.310901762032E+01  0.324997796195E+01  0.325201404454E+01  0.333952738698E+01  0.258850022077E+01  0.351138683470E+01
  0.288724945801E+01  0.278463403728E+01  0.315905334162E+01  0.315924369813E+01  0.319213122281E+01  0.327136963887E+01  0.313955386587E+01
  0.338574341002E+01  0.339837651792E+01  0.311124413280E+01  0.374699809792E+01  0.277540862260E+01  0.318687778364E+01  0.262537741094E+01
  0.317368430093E+01  0.334349929187E+01  0.331730575007E+01  0.339196178185E+01  0.353066925361E+01  0.344663771891E+01  0.354628685998E+01
  0.367857100137E+01  0.320547098760E+01  0.305626310172E+01  0.305587098969E+01  0.382531569467E+01  0.235904062589E+01  0.321947989371E+01
  0.311621520119E+01  0.311453503206E+01  0.281566911296E+01  0.285522992719E+01  0.322371503393E+01  0.323629195357E+01  0.327545827826E+01
  0.297429676159E+01  0.247244903314E+01  0.229607768406E+01  0.335115897961E+01  0.332077667509E+01  0.333306199595E+01  0.322923461146E+01
  0.218837062717E+01  0.277140615974E+01  0.318340159923E+01  0.315485405780E+01  0.321941351473E+01  0.323146018066E+01  0.381282679968E+01
  0.317418045411E+01  0.321291709940E+01  0.353028407261E+01  0.348756281171E+01  0.312673915791E+01  0.340956525638E+01  0.351492140216E+01
  0.320183624437E+01  0.324694795735E+01  0.366211825504E+01  0.280279843621E+01  0.337132338402E+01  0.335127276148E+01  0.309285906684E+01
  0.312340538373E+01  0.250027518190E+01  0.300316431158E+01  0.309709338053E+01  0.304941220693E+01  0.318981533272E+01  0.321468632090E+01
  0.328283807172E+01  0.317307379967E+01  0.317032808562E+01  0.315487632011E+01  0.325894290812E+01  0.326310608163E+01  0.340953117889E+01
  0.336372793546E+01  0.321769686296E+01  0.296619625374E+01  0.337322216625E+01  0.330227778905E+01  0.335332127161E+01  0.322389959617E+01
  0.306430979959E+01  0.304685716336E+01  0.293263592069E+01  0.325374930040E+01  0.296204621561E+01  0.297526887296E+01  0.345459092975E+01
  0.344161738158E+01  0.364503360160E+01  0.365313844515E+01  0.310542479005E+01  0.229042470331E+01  0.227830484154E+01  0.314824948121E+01
  0.326541819079E+01  0.353524710408E+01  0.329705730452E+01  0.329559209113E+01  0.319173926876E+01  0.331153578270E+01  0.322021359410E+01
  0.280174026290E+01  0.249002184928E+01  0.305904940529E+01  0.270648180419E+01  0.368036676348E+01  0.322294682722E+01  0.305414231595E+01
  0.314960196090E+01  0.297682110359E+01  0.311641393200E+01  0.311531134139E+01  0.364336331235E+01  0.330483238767E+01  0.318719590699E+01
  0.321864172472E+01  0.325921772835E+01  0.359355026961E+01  0.317411306118E+01  0.338236900662E+01  0.221486969432E+01  0.319469026141E+01
  0.331824391510E+01  0.339045379970E+01  0.330895939265E+01  0.329723687625E+01  0.332817214012E+01  0.270192545763E+01  0.231654285900E+01
  0.322441847458E+01  0.221162026130E+01  0.283186788764E+01  0.208583656520E+01  0.217558280750E+01  0.331500774816E+01  0.330438323728E+01
  0.269314215482E+01  0.331988938050E+01  0.214660305396E+01  0.321799576576E+01  0.330761849868E+01  0.333330699874E+01  0.321867153327E+01
  0.222613786975E+01  0.284532157854E+01  0.318758862174E+01  0.204550754317E+01  0.239855371213E+01  0.344113201789E+01  0.321334524631E+01
  0.381071113222E+01  0.253293482046E+01  0.310871325533E+01  0.316547361623E+01  0.261859142308E+01  0.326405110755E+01  0.314623966654E+01
  0.310890227917E+01  0.344605977812E+01  0.311367434170E+01  0.317375459770E+01  0.342979508539E+01  0.321927260387E+01  0.316662965220E+01
  0.316574390308E+01  0.317985475335E+01  0.316208555926E+01
  0.189176452339E+00  0.192302702739E+00  0.165285262552E+00  0.208302345372E+00  0.180130257922E+00  0.342145026458E+00  0.138813699518E+00
  0.258803505866E+00  0.152649232839E+00  0.197200764867E+00  0.349070155621E+00  0.178499133945E+00  0.160634256640E+00  0.561885230171E+00
  0.238018267946E+00  0.355002639979E+00  0.299736143575E+00  0.121880213025E+00  0.204215657988E+00  0.130574558334E+00  0.283953656822E+00
  0.143529489841E+00  0.207382323175E+00  0.184290179823E+00  0.642426003814E+00  0.372100297590E+00  0.263129964673E+00  0.511857079551E+00
  0.164163483419E+00  0.142080901922E+00  0.250618445705E+00  0.842727957099E+00  0.450014173444E+00  0.232559799037E+00  0.378206417212E+00
  0.318986737671E+00  0.320058465507E+00  0.169841444653E+00  0.238235402389E+00  0.108812336250E+00  0.165955040545E+00  0.129411516048E+00
  0.114042521021E+00  0.295229018527E+00  0.190474061913E+00  0.659276456681E+00  0.566491399898E+00  0.630305114747E+00  0.173721328509E+00
  0.462891143726E+00  0.409837985544E+00  0.507148209716E+00  0.600976148923E+00  0.150074396075E+00  0.131939512681E+00  0.119286106658E+00
  0.195608752768E+00  0.108522250652E+01  0.721605894851E+00  0.107737165573E+01  0.791148047607E+00  0.517452592959E+00  0.474808007471E+00
  0.173274371383E+00  0.238053280126E+00  0.217026379999E+00  0.294671088770E+00  0.305784282024E+00  0.412054667870E+00  0.217442185113E+00
  0.288813374457E+00  0.155216293437E+00  0.166417381466E+00  0.333210921290E+00  0.942922472634E-01  0.125336404028E+00  0.102160084279E+00
  0.953861509535E+00  0.621871503693E+00  0.414486937069E+00  0.448785936071E+00  0.366036708702E+00  0.462378843453E+00  0.566252959384E+00
  0.494770256837E+00  0.679865150459E+00  0.442496740850E+00  0.687398058356E+00  0.488273190647E+00  0.133932498142E+00  0.119593129311E+00
  0.106335910193E+00  0.107061737147E+00  0.168184461634E+00  0.219640973483E+00  0.160770573760E+00  0.158449596407E+00  0.146938693260E+01
  0.114139166379E+01  0.146594662066E+01  0.120492595985E+01  0.933485274881E+00  0.903011818947E+00  0.346452366456E+00  0.359306263808E+00
  0.861477625161E-01  0.127472950665E+00  0.141011156183E+00  0.150048388859E+00  0.247401168405E+00  0.207900912831E+00  0.231401686866E+00
  0.125934785498E+00  0.234235643740E+00  0.306017114516E+00  0.271666739392E+00  0.181521521367E+00  0.283653642146E+00  0.235339498475E+00
  0.308336664393E+00  0.244447537746E+00  0.308627862686E+00  0.374304375994E+00  0.177021463706E+00  0.187202573691E+00  0.136673570015E+00
  0.217895325014E+00  0.257329140446E+00  0.158180399913E+00  0.928069646065E-01  0.788920818341E+00  0.100565602933E+01  0.334838132433E+00
  0.391020563721E+00  0.360426198293E+00  0.251228802960E+00  0.497453597690E+00  0.605068903691E+00  0.364830152693E+00  0.513774704041E+00
  0.651678227389E+00  0.564611820242E+00  0.519813504511E+00  0.630214929016E+00  0.319898106768E+00  0.391856182554E+00  0.302652853097E+00
  0.837568453457E+00  0.485060605978E+00  0.397432281242E+00  0.117978868202E+00  0.949233521421E-01  0.947826036271E-01  0.104908866626E+00
  0.117585399377E+00  0.168333536740E+00  0.171123732162E+00  0.844494031566E-01  0.788897105558E-01  0.106020290596E+00  0.139628304460E+00
  0.960047534824E-01  0.100660898794E+00  0.104560418131E+00  0.136412246117E+00  0.139947970717E+01  0.562471890548E+00  0.664113943237E+00
  0.248407779353E+00  0.986727402680E-01  0.134320165259E+00  0.144483899003E+00  0.147158524380E+00  0.123075615033E+00  0.174359551491E+00
  0.136154957878E+00  0.189255795111E+00  0.129912619625E+00  0.170410867928E+00  0.200356642346E+00  0.253186716096E+00  0.112418124235E+00
  0.115662526745E+00  0.180716713392E+00  0.195184753803E+00  0.283277611564E+00  0.292320974263E+00  0.240165888992E+00  0.202525783776E+00
  0.115271916844E+00  0.122426410894E+00  0.149434645594E+00  0.145916512776E+00  0.196096694106E+00  0.219106598985E+00  0.175325264189E+00
  0.257470547260E+00  0.218932425522E+00  0.175048440348E+00  0.284597012965E+00  0.173251381106E+00  0.220104289443E+00  0.310651904014E+00
  0.227961774522E+00  0.222324703029E+00  0.268682425525E+00  0.121447309250E+00  0.169730926982E+00  0.128276767741E+00  0.155992621707E+00
  0.137299260158E+00  0.759067983941E-01  0.957705917291E-01  0.183703947648E+00  0.190911088995E+00  0.394442428638E+00  0.326777742091E+00
  0.180053713350E+00  0.510936536125E+00  0.247872496201E+00  0.259499513606E+00  0.215180897660E+00  0.273257449395E+00  0.256900444936E+00
  0.377478245657E+00  0.228503840418E+00  0.236884179422E+00  0.235518703559E+00  0.308284773042E+00  0.303698827850E+00  0.869360680521E-01
  0.870359296393E-01  0.819573925355E-01  0.139249097583E+00  0.136725743015E+00  0.148381721384E+00  0.152845903307E+00  0.112319958644E+00
  0.114092683728E+00  0.729630105031E-01  0.768461030741E-01  0.651891153524E-01  0.674834294527E-01  0.612255069076E-01  0.659271686041E-01
  0.567128035741E-01  0.696784508458E-01  0.887876699650E-01  0.907778125198E-01  0.106023704637E+00  0.954660306032E-01  0.750220450915E-01
  0.804723819980E-01  0.533803572348E-01  0.826434146554E-01  0.139858871113E+00  0.132414753021E+00  0.113605921697E+00  0.107920051667E+00
  0.124475937616E+00  0.123864033062E+00  0.120012939925E+00  0.188235445627E+00  0.153945365227E+00  0.125299486721E+00  0.128007813550E+00
  0.224632913851E+00  0.198905270093E+00  0.161795164642E+00  0.193325182081E+00  0.238514515757E+00  0.203879753515E+00  0.166743179995E+00
  0.141719547315E+00  0.162986124536E+00  0.141259169822E+00  0.158658964396E+00  0.162253914167E+00  0.219965040634E+00  0.199803784714E+00
  0.143664872994E+00  0.140875971635E+00  0.144754337038E+00  0.160317946029E+00  0.109949377798E+00  0.106901817995E+00  0.114455187417E+00
  0.127197552391E+00  0.103227101605E+00  0.126831090120E+00  0.113378509822E+00  0.210762111850E+00  0.146021961802E+00  0.152516169582E+00
  0.161745786133E+00  0.126142183303E+00  0.131633794262E+00  0.237252636286E+00  0.172428900969E+00  0.133326207161E+00  0.121325964868E+00
  0.161783725757E+00  0.180490773719E+00  0.198615656008E+00  0.173855246112E+00  0.180347125140E+00  0.113672714321E+00  0.104210455922E+00
  0.879707854129E-01  0.113001456031E+00  0.123791157414E+00  0.373048238766E-01  0.452510234262E-01  0.491543218390E-01  0.629776398834E-01
  0.718953169847E-01  0.414113966629E-01  0.592264087635E-01  0.802130838422E-01  0.538075968290E-01  0.715391396915E-01  0.161187668787E+00
  0.106724780554E+00  0.143159195496E+00  0.144902244960E+00  0.120459863070E+00  0.153063802937E+00  0.149971755899E+00  0.167552154767E+00
  0.184899772777E+00  0.170181276089E+00  0.188252158937E+00  0.192514592847E+00  0.199953303579E+00  0.185449206072E+00  0.149292873174E+00
  0.167803750759E+00  0.165865473137E+00  0.156667062184E+00  0.184029252657E+00  0.207377419481E+00  0.132300862277E+00  0.111471340759E+00
  0.162713447391E+00  0.902511838276E-01  0.125574301051E+00  0.144650719690E+00  0.223183549312E+00  0.166680721921E+00  0.765634951183E-01
  0.159274578049E+00  0.127414044647E+00  0.997436640074E-01  0.100690671244E+00  0.126108731175E+00  0.104168284329E+00  0.100862500597E+00
  0.122371058295E+00  0.887875242515E-01  0.840002708822E-01  0.682347978209E-01  0.629283621245E-01  0.786725515350E-01  0.670473409520E-01
  0.584436422826E-01  0.507347500867E-01  0.728758081699E-01  0.805234047344E-01  0.114084292250E+00  0.116537927815E+00  0.160063010381E+00
  0.147066538455E+00  0.108176417461E+00  0.139577889163E+00  0.117622896604E+00  0.149376015746E+00  0.108912012901E+00  0.109160163411E+00
  0.137577979013E+00  0.143192705643E+00  0.133833813415E+00  0.178184161221E+00  0.999043345631E-01  0.120144543565E+00  0.102359618217E+00