# vtk DataFile Version 3.0
vtk output
ASCII
DATASET UNSTRUCTURED_GRID
POINTS 1267 double
3.525425e+00 4.055743e-01 -3.872983e+00
3.418923e+00 4.123518e-01 -3.872983e+00
3.525425e+00 3.738924e-01 -3.872983e+00
3.395451e+00 3.760529e-01 -3.872983e+00
3.444943e+00 4.457452e-01 -3.872983e+00
3.525425e+00 4.372562e-01 -3.872983e+00
3.265462e+00 3.769059e-01 -3.872983e+00
3.309873e+00 4.220348e-01 -3.872983e+00
3.525425e+00 4.689382e-01 -3.872983e+00
3.470624e+00 4.681789e-01 -3.872983e+00
3.364802e+00 4.651940e-01 -3.872983e+00
3.262885e+00 5.031428e-01 -3.872983e+00
3.190305e+00 4.336875e-01 -3.872983e+00
3.525425e+00 5.323021e-01 -3.872983e+00
3.405169e+00 5.254198e-01 -3.872983e+00
3.525425e+00 5.006201e-01 -3.872983e+00
3.441505e+00 4.898532e-01 -3.872983e+00
3.390860e+00 5.763810e-01 -3.872983e+00
3.525425e+00 5.639840e-01 -3.872983e+00
2.360787e+00 3.127862e-01 -3.872983e+00
2.430683e+00 3.942206e-01 -3.872983e+00
2.236068e+00 3.388421e-01 -3.872983e+00
2.335227e+00 4.262220e-01 -3.872983e+00
2.457070e+00 4.774267e-01 -3.872983e+00
2.488151e+00 4.430840e-01 -3.872983e+00
2.821870e+00 4.910421e-01 -3.872983e+00
2.693878e+00 4.753921e-01 -3.872983e+00
2.786292e+00 4.184260e-01 -3.872983e+00
2.658990e+00 4.058253e-01 -3.872983e+00
2.851387e+00 5.683665e-01 -3.872983e+00
2.717952e+00 5.470964e-01 -3.872983e+00
2.617221e+00 3.346931e-01 -3.872983e+00
2.487899e+00 3.215102e-01 -3.872983e+00
2.538568e+00 3.947902e-01 -3.872983e+00
3.135488e+00 3.750125e-01 -3.872983e+00
3.005631e+00 3.691749e-01 -3.872983e+00
3.052972e+00 4.345600e-01 -3.872983e+00
3.098165e+00 5.066459e-01 -3.872983e+00
2.576701e+00 4.576046e-01 -3.872983e+00
3.255986e+00 5.847667e-01 -3.872983e+00
2.875968e+00 3.599569e-01 -3.872983e+00
2.917789e+00 4.287317e-01 -3.872983e+00
2.746519e+00 3.481047e-01 -3.872983e+00
2.955922e+00 5.019839e-01 -3.872983e+00
2.985865e+00 5.815158e-01 -3.872983e+00
3.120880e+00 5.868968e-01 -3.872983e+00
2.586205e+00 5.171522e-01 -3.872983e+00
2.459675e+00 3.727264e-01 -4.260282e+00
2.579804e+00 3.461188e-01 -4.260992e+00
2.683282e+00 4.066105e-01 -4.647580e+00
2.798835e+00 3.794695e-01 -4.648991e+00
2.917476e+00 3.831756e-01 -4.647580e+00
2.702688e+00 3.523414e-01 -4.260282e+00
2.906889e+00 4.404948e-01 -5.034878e+00
3.017883e+00 4.127767e-01 -5.036367e+00
3.130496e+00 4.743790e-01 -5.422177e+00
3.236946e+00 4.460892e-01 -5.423735e+00
3.347084e+00 4.448547e-01 -5.422176e+00
3.132280e+00 4.140137e-01 -5.034878e+00
3.354102e+00 5.082632e-01 -5.809475e+00
3.456033e+00 4.794054e-01 -5.811090e+00
3.577709e+00 5.421474e-01 -6.196774e+00
3.675138e+00 5.127246e-01 -6.198434e+00
3.776725e+00 5.065460e-01 -6.196773e+00
3.561905e+00 4.756989e-01 -5.809475e+00
3.801316e+00 5.760316e-01 -6.584072e+00
3.894272e+00 5.460437e-01 -6.585763e+00
4.024923e+00 6.099158e-01 -6.971370e+00
4.113429e+00 5.793616e-01 -6.973079e+00
4.206398e+00 5.682474e-01 -6.971370e+00
3.991561e+00 5.373954e-01 -6.584072e+00
4.248529e+00 6.438000e-01 -7.358668e+00
4.332578e+00 6.125175e-01 -7.359524e+00
4.472136e+00 6.776842e-01 -7.745967e+00
4.551739e+00 6.456397e-01 -7.745967e+00
4.636103e+00 6.299562e-01 -7.745967e+00
4.421251e+00 5.991006e-01 -7.358668e+00
2.827696e+00 3.629482e-01 -4.260286e+00
3.038167e+00 3.912076e-01 -4.647590e+00
3.158817e+00 3.998297e-01 -4.647580e+00
2.952668e+00 3.739643e-01 -4.260282e+00
3.248661e+00 4.194734e-01 -5.034895e+00
3.459151e+00 4.477440e-01 -5.422203e+00
3.571189e+00 4.515840e-01 -5.422176e+00
3.365003e+00 4.257038e-01 -5.034878e+00
3.669663e+00 4.760207e-01 -5.809513e+00
3.880170e+00 5.043029e-01 -6.196826e+00
3.983635e+00 5.033652e-01 -6.196773e+00
3.777412e+00 4.774716e-01 -5.809475e+00
4.090698e+00 5.325910e-01 -6.584141e+00
4.301220e+00 5.608860e-01 -6.971460e+00
4.396155e+00 5.551701e-01 -6.971370e+00
4.189895e+00 5.292647e-01 -6.584072e+00
4.511761e+00 5.891781e-01 -7.358711e+00
4.722294e+00 6.174766e-01 -7.745967e+00
4.808750e+00 6.069940e-01 -7.745967e+00
4.602452e+00 5.810794e-01 -7.358668e+00
3.077855e+00 3.837274e-01 -4.260265e+00
3.279738e+00 4.075021e-01 -4.647550e+00
3.400764e+00 4.132828e-01 -4.647580e+00
3.203197e+00 3.912270e-01 -4.260282e+00
3.481655e+00 4.312838e-01 -5.034848e+00
3.683567e+00 4.550702e-01 -5.422149e+00
3.795974e+00 4.574082e-01 -5.422176e+00
3.598369e+00 4.353437e-01 -5.034878e+00
3.885512e+00 4.788625e-01 -5.809453e+00
4.087451e+00 5.026600e-01 -6.196760e+00
4.191265e+00 5.015486e-01 -6.196773e+00
3.993620e+00 4.794767e-01 -5.809474e+00
4.289423e+00 5.264629e-01 -6.584070e+00
4.491386e+00 5.502719e-01 -6.971384e+00
4.586634e+00 5.457008e-01 -6.971370e+00
4.388949e+00 5.236232e-01 -6.584071e+00
4.693380e+00 5.740830e-01 -7.358673e+00
4.895364e+00 5.979009e-01 -7.745967e+00
4.982083e+00 5.898597e-01 -7.745967e+00
4.784359e+00 5.677792e-01 -7.358668e+00
3.328780e+00 3.957692e-01 -4.260246e+00
3.522069e+00 4.165272e-01 -4.647510e+00
3.643417e+00 4.167522e-01 -4.647580e+00
3.454440e+00 3.968289e-01 -4.260282e+00
3.715387e+00 4.372887e-01 -5.034813e+00
3.908702e+00 4.580517e-01 -5.422119e+00
4.021421e+00 4.565986e-01 -5.422176e+00
3.832419e+00 4.366754e-01 -5.034878e+00
4.102045e+00 4.788160e-01 -5.809425e+00
4.295383e+00 4.995818e-01 -6.196734e+00
4.399473e+00 4.964437e-01 -6.196773e+00
4.210447e+00 4.765213e-01 -5.809474e+00
4.488749e+00 5.203483e-01 -6.584046e+00
4.682109e+00 5.411164e-01 -6.971360e+00
4.777573e+00 5.362850e-01 -6.971370e+00
4.588523e+00 5.163647e-01 -6.584071e+00
4.875496e+00 5.618830e-01 -7.358662e+00
5.068875e+00 5.826513e-01 -7.745967e+00
5.155721e+00 5.761195e-01 -7.745967e+00
4.966647e+00 5.562029e-01 -7.358668e+00
3.580146e+00 3.954667e-01 -4.260267e+00
3.764840e+00 4.148799e-01 -4.647552e+00
3.886245e+00 4.120545e-01 -4.647580e+00
3.705835e+00 3.929740e-01 -4.260282e+00
3.949546e+00 4.342932e-01 -5.034854e+00
4.134251e+00 4.537057e-01 -5.422157e+00
4.247064e+00 4.502122e-01 -5.422176e+00
4.066654e+00 4.311340e-01 -5.034878e+00
4.318968e+00 4.731169e-01 -5.809460e+00
4.503683e+00 4.925271e-01 -6.196764e+00
4.607884e+00 4.883644e-01 -6.196773e+00
4.427474e+00 4.692891e-01 -5.809474e+00
4.688410e+00 5.119355e-01 -6.584069e+00
4.873136e+00 5.313423e-01 -6.971374e+00
4.968704e+00 5.265096e-01 -6.971369e+00
4.788294e+00 5.074380e-01 -6.584071e+00
5.057872e+00 5.507460e-01 -7.358670e+00
5.242607e+00 5.701476e-01 -7.745967e+00
5.329524e+00 5.646455e-01 -7.745967e+00
5.149114e+00 5.455788e-01 -7.358668e+00
0.000000e+00 0.000000e+00 0.000000e+00
2.236069e-01 3.388424e-02 -3.872983e-01
1.696334e-01 -1.995896e-02 0.000000e+00
3.887445e-01 1.331450e-02 -3.874485e-01
4.472137e-01 6.776845e-02 -7.745967e-01
6.078593e-01 4.659042e-02 -7.748948e-01
7.674708e-01 7.451263e-02 -7.745966e-01
5.523770e-01 4.361206e-02 -3.872984e-01
3.372839e-01 1.270797e-02 0.000000e+00
6.708205e-01 1.016527e-01 -1.161895e+00
8.269691e-01 7.986749e-02 -1.162322e+00
8.944273e-01 1.355369e-01 -1.549193e+00
1.046084e+00 1.131471e-01 -1.549747e+00
1.197626e+00 1.362956e-01 -1.549193e+00
9.825480e-01 1.054060e-01 -1.161895e+00
1.118034e+00 1.694211e-01 -1.936492e+00
1.265194e+00 1.464284e-01 -1.937168e+00
1.341641e+00 2.033053e-01 -2.323790e+00
1.484310e+00 1.797125e-01 -2.324586e+00
1.627749e+00 1.980566e-01 -2.323790e+00
1.412687e+00 1.671782e-01 -1.936492e+00
1.565248e+00 2.371895e-01 -2.711088e+00
1.703424e+00 2.129986e-01 -2.712000e+00
1.788855e+00 2.710737e-01 -3.098387e+00
1.922544e+00 2.462876e-01 -3.099410e+00
2.057840e+00 2.597950e-01 -3.098387e+00
1.842794e+00 2.289280e-01 -2.711088e+00
2.012461e+00 3.049579e-01 -3.485685e+00
2.141662e+00 2.795409e-01 -3.486198e+00
2.272869e+00 2.906550e-01 -3.485685e+00
5.078500e-01 5.127005e-02 0.000000e+00
7.188451e-01 7.965253e-02 -3.873088e-01
9.298404e-01 1.080291e-01 -7.746179e-01
1.092430e+00 1.404624e-01 -7.745966e-01
8.855763e-01 1.144559e-01 -3.872984e-01
6.787242e-01 8.844277e-02 0.000000e+00
1.140807e+00 1.363941e-01 -1.161911e+00
1.351774e+00 1.647526e-01 -1.549204e+00
1.506062e+00 1.924391e-01 -1.549193e+00
1.299245e+00 1.664544e-01 -1.161895e+00
1.562712e+00 1.930989e-01 -1.936498e+00
1.773649e+00 2.214382e-01 -2.323793e+00
1.919621e+00 2.443723e-01 -2.323790e+00
1.712841e+00 2.184096e-01 -1.936492e+00
1.984558e+00 2.497656e-01 -2.711089e+00
2.195466e+00 2.780853e-01 -3.098387e+00
2.333107e+00 2.962612e-01 -3.098387e+00
2.126363e+00 2.703210e-01 -2.711088e+00
2.406344e+00 3.063934e-01 -3.485684e+00
2.539813e+00 3.221876e-01 -3.485685e+00
8.504772e-01 1.212741e-01 0.000000e+00
1.053110e+00 1.451867e-01 -3.873278e-01
1.255742e+00 1.690928e-01 -7.746562e-01
1.419922e+00 1.922314e-01 -7.745966e-01
1.221610e+00 1.700753e-01 -3.872983e-01
1.023299e+00 1.479139e-01 0.000000e+00
1.458334e+00 1.929864e-01 -1.161940e+00
1.660925e+00 2.168727e-01 -1.549225e+00
1.816467e+00 2.365169e-01 -1.549193e+00
1.618194e+00 2.143770e-01 -1.161895e+00
1.863475e+00 2.407456e-01 -1.936511e+00
2.066024e+00 2.646105e-01 -2.323798e+00
2.212934e+00 2.807700e-01 -2.323790e+00
2.014700e+00 2.586465e-01 -1.936491e+00
2.268533e+00 2.884623e-01 -2.711086e+00
2.471040e+00 3.123054e-01 -3.098376e+00
2.609322e+00 3.249897e-01 -3.098387e+00
2.411127e+00 3.028832e-01 -2.711088e+00
2.673505e+00 3.361357e-01 -3.485678e+00
2.807476e+00 3.470860e-01 -3.485685e+00
1.197106e+00 1.670192e-01 0.000000e+00
1.391014e+00 1.878412e-01 -3.872693e-01
1.584921e+00 2.086594e-01 -7.745392e-01
1.750503e+00 2.174356e-01 -7.745965e-01
1.561074e+00 1.974902e-01 -3.872982e-01
1.371644e+00 1.775430e-01 0.000000e+00
1.778795e+00 2.294714e-01 -1.161832e+00
1.972667e+00 2.502794e-01 -1.549126e+00
2.129315e+00 2.573186e-01 -1.549193e+00
1.939909e+00 2.373782e-01 -1.161895e+00
2.166507e+00 2.710810e-01 -1.936421e+00
2.360345e+00 2.918782e-01 -2.323716e+00
2.508078e+00 2.971918e-01 -2.323790e+00
2.318696e+00 2.772564e-01 -1.936491e+00
2.554149e+00 3.126691e-01 -2.711013e+00
2.747952e+00 3.334552e-01 -3.098310e+00
2.886794e+00 3.370545e-01 -3.098387e+00
2.697436e+00 3.171244e-01 -2.711088e+00
2.941721e+00 3.542363e-01 -3.485646e+00
3.076128e+00 3.569816e-01 -3.485685e+00
1.546460e+00 1.818514e-01 0.000000e+00
[...]
POINT_DATA 1267
SCALARS u double 1
LOOKUP_TABLE default
2.064e-04
2.008e-04
2.305e-04
2.282e-04
1.755e-04
1.823e-04
2.268e-04
1.931e-04
1.582e-04
1.586e-04
1.607e-04
1.318e-04
1.837e-04
1.099e-04
1.152e-04
1.340e-04
1.422e-04
7.644e-05
8.578e-05
2.713e-04
2.101e-04
2.518e-04
1.855e-04
1.475e-04
1.734e-04
1.391e-04
1.502e-04
1.933e-04
2.021e-04
8.155e-05
9.682e-05
2.552e-04
2.648e-04
2.100e-04
2.274e-04
2.311e-04
1.824e-04
1.285e-04
1.629e-04
7.020e-05
2.373e-04
1.861e-04
2.456e-04
1.315e-04
7.220e-05
6.849e-05
1.185e-04
2.820e-04
3.045e-04
3.113e-04
3.373e-04
3.333e-04
2.988e-04
3.412e-04
3.701e-04
3.717e-04
4.032e-04
4.042e-04
3.684e-04
4.027e-04
4.367e-04
4.342e-04
4.705e-04
4.778e-04
4.407e-04
4.661e-04
5.045e-04
4.985e-04
5.386e-04
5.528e-04
5.152e-04
5.313e-04
5.725e-04
5.642e-04
6.060e-04
6.264e-04
5.900e-04
2.897e-04
3.253e-04
3.172e-04
2.804e-04
3.626e-04
4.009e-04
3.968e-04
3.562e-04
4.403e-04
4.806e-04
4.819e-04
4.388e-04
5.215e-04
5.626e-04
5.701e-04
5.258e-04
6.031e-04
6.427e-04
6.563e-04
6.137e-04
2.725e-04
3.103e-04
3.056e-04
2.667e-04
3.509e-04
3.934e-04
3.914e-04
3.474e-04
4.375e-04
4.830e-04
4.847e-04
4.372e-04
5.295e-04
5.765e-04
5.824e-04
5.333e-04
6.228e-04
6.683e-04
6.788e-04
6.310e-04
2.637e-04
3.034e-04
3.041e-04
2.636e-04
3.462e-04
3.913e-04
3.935e-04
3.475e-04
4.385e-04
4.874e-04
4.916e-04
4.416e-04
5.376e-04
5.883e-04
5.945e-04
5.428e-04
6.386e-04
6.884e-04
6.970e-04
6.460e-04
2.656e-04
3.066e-04
3.099e-04
2.683e-04
3.507e-04
3.973e-04
4.018e-04
3.546e-04
4.461e-04
4.967e-04
5.023e-04
4.511e-04
5.486e-04
6.010e-04
6.075e-04
5.547e-04
6.532e-04
7.050e-04
7.124e-04
6.601e-04
0.000e+00
1.582e-05
0.000e+00
1.684e-05
3.511e-05
3.933e-05
3.285e-05
1.383e-05
0.000e+00
5.517e-05
6.236e-05
7.745e-05
8.718e-05
7.755e-05
5.377e-05
1.023e-04
1.140e-04
1.295e-04
1.429e-04
1.334e-04
1.044e-04
1.586e-04
1.735e-04
1.889e-04
2.055e-04
1.969e-04
1.645e-04
2.203e-04
2.382e-04
2.306e-04
0.000e+00
1.113e-05
2.627e-05
2.166e-05
9.069e-06
0.000e+00
4.503e-05
6.816e-05
6.199e-05
3.925e-05
9.471e-05
1.237e-04
1.163e-04
8.801e-05
1.545e-04
1.867e-04
1.778e-04
1.463e-04
2.206e-04
2.112e-04
0.000e+00
7.912e-06
1.970e-05
2.007e-05
7.714e-06
0.000e+00
3.705e-05
5.934e-05
5.933e-05
3.764e-05
8.453e-05
1.117e-04
1.092e-04
8.339e-05
1.404e-04
1.709e-04
1.659e-04
1.366e-04
2.034e-04
1.976e-04
0.000e+00
8.206e-06
2.178e-05
2.349e-05
8.881e-06
0.000e+00
3.957e-05
6.052e-05
6.170e-05
4.132e-05
8.345e-05
1.080e-04
1.078e-04
8.390e-05
1.344e-04
1.629e-04
1.621e-04
1.338e-04
1.940e-04
1.931e-04
0.000e+00
9.421e-06
2.465e-05
2.533e-05
9.660e-06
0.000e+00
4.248e-05
6.260e-05
6.337e-05
4.326e-05
8.456e-05
1.084e-04
1.094e-04
8.536e-05
1.344e-04
1.629e-04
1.646e-04
1.357e-04
1.942e-04
1.961e-04
1.195e-04
1.092e-04
1.576e-04
1.466e-04
1.386e-04
1.021e-04
2.004e-04
1.888e-04
2.481e-04
2.359e-04
2.265e-04
1.800e-04
3.004e-04
2.879e-04
3.571e-04
3.443e-04
3.337e-04
2.778e-04
4.176e-04
4.047e-04
4.810e-04
4.681e-04
4.567e-04
3.936e-04
5.462e-04
5.335e-04
6.120e-04
5.995e-04
5.877e-04
5.218e-04
9.969e-05
1.354e-04
1.379e-04
1.030e-04
1.759e-04
2.214e-04
2.215e-04
1.773e-04
2.717e-04
3.266e-04
3.236e-04
2.704e-04
3.855e-04
4.475e-04
4.409e-04
3.807e-04
5.117e-04
5.767e-04
5.665e-04
5.032e-04
1.121e-04
1.462e-04
1.604e-04
1.272e-04
1.844e-04
2.270e-04
2.379e-04
1.972e-04
2.739e-04
3.248e-04
3.306e-04
2.824e-04
3.795e-04
4.370e-04
4.363e-04
3.821e-04
4.967e-04
5.573e-04
5.495e-04
4.924e-04
1.486e-04
1.807e-04
2.081e-04
1.773e-04
2.159e-04
2.544e-04
2.776e-04
2.414e-04
2.962e-04
3.411e-04
3.574e-04
3.163e-04
3.888e-04
4.390e-04
4.460e-04
4.007e-04
4.908e-04
5.435e-04
5.401e-04
4.927e-04
2.153e-04
2.450e-04
2.762e-04
3.095e-04
3.446e-04
3.813e-04
4.195e-04
4.592e-04
5.000e-04
5.411e-04
0.000e+00
-1.503e-05
0.000e+00
-1.555e-05
-2.847e-05
-3.006e-05
-3.106e-05
-1.587e-05
0.000e+00
-3.269e-05
-3.527e-05
-3.001e-05
-3.328e-05
-3.531e-05
-3.667e-05
-2.155e-05
-2.592e-05
-8.126e-06
-1.358e-05
-1.687e-05
-2.851e-05
9.508e-06
3.004e-06
3.105e-05
2.358e-05
1.886e-05
-9.766e-07
5.644e-05
4.802e-05
4.255e-05
0.000e+00
-1.684e-05
-3.304e-05
-3.515e-05
-1.768e-05
0.000e+00
-3.815e-05
-3.661e-05
-3.726e-05
-3.966e-05
-2.953e-05
-1.771e-05
-1.598e-05
-2.899e-05
-1.784e-06
1.792e-05
2.138e-05
9.652e-07
4.129e-05
4.508e-05
0.000e+00
-1.758e-05
-3.563e-05
-3.292e-05
-1.585e-05
0.000e+00
-3.970e-05
-3.634e-05
-3.196e-05
-3.622e-05
-2.643e-05
-1.145e-05
-3.228e-06
-2.048e-05
7.380e-06
2.936e-05
4.219e-05
1.802e-05
5.408e-05
6.857e-05
0.000e+00
-1.202e-05
-2.571e-05
-1.295e-05
-5.713e-06
0.000e+00
-2.730e-05
-2.165e-05
-3.275e-06
-1.144e-05
-8.678e-06
1.071e-05
3.288e-05
1.158e-05
3.439e-05
6.095e-05
8.702e-05
5.852e-05
8.924e-05
1.172e-04
0.000e+00
2.995e-06
6.183e-06
1.377e-05
2.654e-05
4.478e-05
6.820e-05
9.520e-05
1.246e-04
1.551e-04
9.819e-05
1.212e-04
1.441e-04
1.544e-04
1.339e-04
1.132e-04
1.665e-04
1.888e-04
1.955e-04
1.749e-04
2.109e-04
2.331e-04
2.368e-04
2.161e-04
1.305e-04
1.496e-04
1.686e-04
1.825e-04
1.662e-04
1.498e-04
1.870e-04
2.054e-04
2.151e-04
1.988e-04
2.235e-04
2.417e-04
2.478e-04
2.314e-04
1.712e-04
1.858e-04
2.002e-04
2.178e-04
2.062e-04
1.946e-04
2.141e-04
2.280e-04
2.409e-04
2.293e-04
2.416e-04
2.553e-04
2.640e-04
2.524e-04
2.199e-04
2.294e-04
2.389e-04
2.600e-04
2.536e-04
2.472e-04
2.478e-04
2.568e-04
2.727e-04
2.663e-04
2.654e-04
2.741e-04
2.854e-04
2.790e-04
2.767e-04
2.807e-04
2.847e-04
3.095e-04
3.090e-04
3.084e-04
2.882e-04
2.916e-04
3.106e-04
3.101e-04
2.948e-04
2.980e-04
3.118e-04
3.112e-04
1.448e-04
1.698e-04
2.087e-04
1.834e-04
1.947e-04
2.195e-04
2.591e-04
2.340e-04
2.440e-04
2.844e-04
2.264e-04
2.519e-04
2.993e-04
2.739e-04
2.773e-04
3.027e-04
3.500e-04
3.246e-04
3.284e-04
3.756e-04
3.257e-04
3.507e-04
4.055e-04
3.814e-04
3.755e-04
4.004e-04
4.536e-04
4.295e-04
4.256e-04
4.777e-04
4.406e-04
4.633e-04
5.231e-04
5.021e-04
4.860e-04
5.088e-04
5.651e-04
5.441e-04
5.316e-04
5.862e-04
5.652e-04
5.841e-04
6.454e-04
6.287e-04
6.030e-04
6.219e-04
6.789e-04
6.622e-04
6.409e-04
6.956e-04
0.000e+00
8.090e-06
2.043e-05
1.077e-05
3.562e-06
0.000e+00
3.401e-05
5.002e-05
3.267e-05
2.000e-05
6.843e-05
8.968e-05
6.851e-05
4.880e-05
1.139e-04
1.411e-04
1.179e-04
9.154e-05
1.719e-04
1.481e-04
0.000e+00
-2.545e-06
-1.407e-06
-1.363e-05
-8.693e-06
0.000e+00
3.735e-06
1.356e-05
-4.857e-06
-1.218e-05
2.819e-05
4.693e-05
2.617e-05
8.406e-06
6.926e-05
9.494e-05
7.265e-05
4.772e-05
1.245e-04
1.014e-04
0.000e+00
-1.331e-05
-2.341e-05
-2.515e-05
-2.015e-05
-8.735e-06
7.455e-06
2.761e-05
5.130e-05
7.867e-05
2.714e-04
3.137e-04
3.188e-04
2.756e-04
3.590e-04
4.066e-04
4.126e-04
3.646e-04
4.564e-04
5.080e-04
5.144e-04
4.626e-04
5.608e-04
6.140e-04
6.207e-04
5.674e-04
6.668e-04
7.191e-04
7.254e-04
6.734e-04
2.813e-04
3.254e-04
3.334e-04
2.884e-04
3.716e-04
4.197e-04
4.278e-04
3.797e-04
4.698e-04
5.216e-04
5.295e-04
4.778e-04
5.745e-04
6.277e-04
6.347e-04
5.820e-04
6.799e-04
7.312e-04
7.367e-04
6.862e-04
2.967e-04
3.424e-04
3.522e-04
3.063e-04
3.887e-04
4.367e-04
4.462e-04
3.984e-04
4.865e-04
5.378e-04
5.465e-04
4.958e-04
5.899e-04
6.419e-04
6.490e-04
5.979e-04
6.923e-04
7.418e-04
7.466e-04
6.983e-04
3.169e-04
3.626e-04
3.735e-04
3.283e-04
4.086e-04
4.562e-04
4.667e-04
4.193e-04
5.054e-04
5.556e-04
5.650e-04
5.155e-04
6.062e-04
6.561e-04
6.632e-04
6.146e-04
7.042e-04
7.510e-04
7.552e-04
7.099e-04
3.406e-04
3.850e-04
3.977e-04
3.539e-04
4.306e-04
4.779e-04
4.901e-04
4.431e-04
5.261e-04
5.748e-04
5.854e-04
5.377e-04
6.233e-04
6.705e-04
6.779e-04
6.324e-04
7.156e-04
7.590e-04
7.625e-04
7.211e-04
5.704e-04
5.959e-04
5.623e-04
5.763e-04
6.238e-04
6.193e-04
6.889e-04
6.769e-04
6.780e-04
6.662e-04
6.477e-04
5.801e-04
6.103e-04
6.227e-04
6.339e-04
5.901e-04
6.102e-04
6.446e-04
6.554e-04
6.002e-04
0.000e+00
0.000e+00
0.000e+00
0.000e+00
0.000e+00
0.000e+00
0.000e+00
0.000e+00
0.000e+00
0.000e+00
0.000e+00
0.000e+00
0.000e+00
0.000e+00
0.000e+00
0.000e+00
0.000e+00
0.000e+00
0.000e+00
0.000e+00
0.000e+00
9.231e-06
2.529e-05
2.560e-05
9.066e-06
0.000e+00
4.362e-05
6.399e-05
6.550e-05
4.453e-05
8.632e-05
1.107e-04
1.134e-04
8.843e-05
1.375e-04
1.668e-04
1.706e-04
1.408e-04
1.986e-04
2.023e-04
0.000e+00
9.269e-06
2.643e-05
2.754e-05
9.641e-06
0.000e+00
4.619e-05
6.806e-05
7.138e-05
4.834e-05
9.186e-05
1.176e-04
1.228e-04
9.619e-05
1.456e-04
1.758e-04
1.822e-04
1.516e-04
2.074e-04
2.136e-04
0.000e+00
9.995e-06
2.858e-05
2.928e-05
1.021e-05
0.000e+00
5.055e-05
7.486e-05
7.790e-05
5.238e-05
1.008e-04
1.285e-04
1.339e-04
1.050e-04
1.581e-04
1.893e-04
1.967e-04
1.646e-04
2.208e-04
2.288e-04
0.000e+00
1.017e-05
2.938e-05
2.891e-05
9.838e-06
0.000e+00
5.342e-05
8.007e-05
8.152e-05
5.369e-05
1.085e-04
1.388e-04
1.432e-04
1.113e-04
1.709e-04
2.042e-04
2.120e-04
1.769e-04
2.377e-04
2.475e-04
0.000e+00
9.405e-06
2.824e-05
2.999e-05
8.545e-06
3.874e-08
5.425e-05
8.295e-05
8.648e-05
5.686e-05
1.142e-04
1.477e-04
1.540e-04
1.191e-04
1.833e-04
2.205e-04
2.307e-04
1.914e-04
2.585e-04
2.709e-04
3.507e-04
3.189e-04
3.945e-04
3.637e-04
3.327e-04
2.880e-04
4.399e-04
4.090e-04
4.868e-04
4.561e-04
4.258e-04
3.784e-04
5.344e-04
5.045e-04
5.822e-04
5.538e-04
5.261e-04
4.752e-04
6.294e-04
6.033e-04
6.751e-04
6.519e-04
6.292e-04
5.778e-04
7.185e-04
6.985e-04
7.601e-04
7.438e-04
7.278e-04
6.791e-04
2.591e-04
3.030e-04
2.752e-04
2.325e-04
3.489e-04
3.967e-04
3.693e-04
3.211e-04
4.470e-04
4.993e-04
4.740e-04
4.203e-04
5.532e-04
6.072e-04
5.860e-04
5.296e-04
6.602e-04
7.122e-04
6.968e-04
6.419e-04
2.082e-04
2.497e-04
2.267e-04
1.862e-04
2.953e-04
3.438e-04
3.203e-04
2.717e-04
3.954e-04
4.501e-04
4.280e-04
3.724e-04
5.072e-04
5.656e-04
5.464e-04
4.863e-04
6.241e-04
6.818e-04
6.671e-04
6.070e-04
1.663e-04
2.061e-04
1.877e-04
1.485e-04
2.505e-04
2.990e-04
2.798e-04
2.315e-04
3.514e-04
4.075e-04
3.889e-04
3.324e-04
4.668e-04
5.282e-04
5.112e-04
4.488e-04
5.905e-04
6.527e-04
6.387e-04
5.749e-04
1.327e-04
1.714e-04
2.148e-04
2.628e-04
3.153e-04
3.720e-04
4.324e-04
4.954e-04
5.601e-04
6.251e-04
0.000e+00
7.999e-06
0.000e+00
2.581e-06
2.884e-05
1.624e-05
-8.438e-09
-4.457e-06
0.000e+00
5.582e-05
4.105e-05
8.517e-05
6.932e-05
4.769e-05
2.092e-05
1.177e-04
1.001e-04
1.523e-04
1.331e-04
1.097e-04
7.769e-05
1.894e-04
1.675e-04
2.282e-04
2.029e-04
1.764e-04
1.428e-04
2.680e-04
2.391e-04
2.112e-04
0.000e+00
-8.700e-06
-1.300e-05
-2.023e-05
-1.022e-05
0.000e+00
1.609e-06
2.606e-05
7.736e-06
-1.312e-05
5.465e-05
8.570e-05
6.351e-05
3.406e-05
1.178e-04
1.504e-04
1.261e-04
9.441e-05
1.845e-04
1.596e-04
0.000e+00
-1.003e-05
-2.258e-05
-2.230e-05
-9.449e-06
0.000e+00
-2.202e-05
-5.857e-06
-1.461e-05
-2.602e-05
1.744e-05
4.444e-05
2.901e-05
5.059e-06
7.358e-05
1.040e-04
8.457e-05
5.580e-05
1.367e-04
1.160e-04
0.000e+00
-9.456e-06
-2.169e-05
-2.240e-05
-1.065e-05
0.000e+00
-2.721e-05
-1.970e-05
-2.286e-05
-2.782e-05
-3.777e-06
1.690e-05
7.307e-06
-1.028e-05
4.097e-05
6.777e-05
5.343e-05
2.870e-05
9.766e-05
8.161e-05
0.000e+00
-1.288e-05
-2.502e-05
-2.948e-05
-2.595e-05
-1.590e-05
-8.128e-07
1.833e-05
4.122e-05
6.783e-05
3.533e-04
3.972e-04
3.966e-04
3.528e-04
4.426e-04
4.895e-04
4.890e-04
4.421e-04
5.371e-04
5.848e-04
5.843e-04
5.366e-04
6.319e-04
6.775e-04
6.770e-04
6.314e-04
7.207e-04
7.621e-04
7.617e-04
7.202e-04
3.523e-04
3.961e-04
3.956e-04
3.517e-04
4.415e-04
4.884e-04
4.879e-04
4.410e-04
5.360e-04
5.838e-04
5.832e-04
5.355e-04
6.309e-04
6.765e-04
6.760e-04
6.304e-04
7.198e-04
7.613e-04
7.609e-04
7.194e-04
3.512e-04
3.951e-04
4.405e-04
4.873e-04
5.350e-04
5.827e-04
6.299e-04
6.756e-04
7.189e-04
7.605e-04
3.402e-08
8.462e-06
2.979e-05
2.959e-05
8.385e-06
2.080e-08
5.670e-05
8.626e-05
8.604e-05
5.653e-05
1.188e-04
1.538e-04
1.535e-04
1.186e-04
1.910e-04
2.303e-04
2.298e-04
1.907e-04
2.704e-04
2.699e-04
2.759e-09
8.307e-06
2.939e-05
2.920e-05
8.220e-06
-1.117e-08
5.637e-05
8.581e-05
8.559e-05
5.620e-05
1.184e-04
1.532e-04
1.529e-04
1.182e-04
1.904e-04
2.294e-04
2.290e-04
1.901e-04
2.695e-04
2.690e-04
-1.646e-08
8.120e-06
2.901e-05
5.602e-05
8.538e-05
1.179e-04
1.526e-04
1.897e-04
2.286e-04
2.685e-04
7.463e-04
7.489e-04
7.369e-04
7.324e-04
7.187e-04
7.252e-04
7.134e-04
7.051e-04
6.918e-04
7.019e-04
6.903e-04
6.787e-04
6.658e-04
6.789e-04
6.676e-04
6.531e-04
6.408e-04
6.565e-04
7.514e-04
7.539e-04
7.461e-04
7.415e-04
7.316e-04
7.380e-04
7.300e-04
7.217e-04
7.118e-04
7.217e-04
7.135e-04
7.019e-04
6.919e-04
7.050e-04
6.965e-04
6.820e-04
6.721e-04
6.877e-04
7.565e-04
7.506e-04
7.445e-04
7.383e-04
7.318e-04
7.251e-04
7.181e-04
7.109e-04
7.034e-04
0.000e+00
0.000e+00
0.000e+00
0.000e+00
0.000e+00
0.000e+00
0.000e+00
0.000e+00
0.000e+00
0.000e+00
0.000e+00
0.000e+00
0.000e+00
0.000e+00
0.000e+00
0.000e+00
0.000e+00
0.000e+00
0.000e+00
0.000e+00
0.000e+00
0.000e+00
0.000e+00
0.000e+00
0.000e+00
0.000e+00
0.000e+00
0.000e+00
0.000e+00
0.000e+00
0.000e+00
0.000e+00
0.000e+00
0.000e+00
0.000e+00
0.000e+00
0.000e+00
0.000e+00
0.000e+00
0.000e+00
0.000e+00
0.000e+00
0.000e+00
0.000e+00
0.000e+00
SCALARS v double 1
LOOKUP_TABLE default
3.550e-03
3.469e-03
3.550e-03
3.451e-03
3.489e-03
3.550e-03
3.353e-03
3.386e-03
3.550e-03
3.508e-03
3.428e-03
3.351e-03
3.297e-03
3.550e-03
3.459e-03
3.550e-03
3.486e-03
3.448e-03
3.551e-03
2.678e-03
2.730e-03
2.583e-03
2.658e-03
2.749e-03
2.773e-03
3.022e-03
2.926e-03
2.995e-03
2.901e-03
3.044e-03
2.944e-03
2.869e-03
2.773e-03
2.811e-03
3.256e-03
3.159e-03
3.194e-03
3.228e-03
2.839e-03
3.346e-03
3.062e-03
3.093e-03
2.966e-03
3.122e-03
3.144e-03
3.245e-03
2.846e-03
3.214e-03
3.319e-03
3.926e-03
4.040e-03
4.156e-03
3.425e-03
4.710e-03
4.829e-03
5.562e-03
5.683e-03
5.807e-03
4.950e-03
6.475e-03
6.599e-03
7.444e-03
7.567e-03
7.692e-03
6.723e-03
8.458e-03
8.580e-03
9.505e-03
9.624e-03
9.744e-03
8.703e-03
1.057e-02
1.068e-02
1.164e-02
1.175e-02
1.186e-02
1.080e-02
3.535e-03
4.276e-03
4.395e-03
3.644e-03
5.076e-03
5.935e-03
6.062e-03
5.199e-03
6.854e-03
7.823e-03
7.951e-03
6.982e-03
8.832e-03
9.870e-03
9.994e-03
8.959e-03
1.092e-02
1.197e-02
1.208e-02
1.104e-02
3.753e-03
4.510e-03
4.622e-03
3.860e-03
5.319e-03
6.185e-03
6.305e-03
5.435e-03
7.108e-03
8.078e-03
8.201e-03
7.231e-03
9.085e-03
1.012e-02
1.024e-02
9.207e-03
1.116e-02
1.220e-02
1.231e-02
1.127e-02
3.964e-03
4.730e-03
4.836e-03
4.067e-03
5.548e-03
6.423e-03
6.540e-03
5.659e-03
7.351e-03
8.323e-03
8.443e-03
7.471e-03
9.328e-03
1.035e-02
1.047e-02
9.448e-03
1.139e-02
1.242e-02
1.254e-02
1.150e-02
4.168e-03
4.941e-03
5.051e-03
4.270e-03
5.772e-03
6.658e-03
6.780e-03
5.890e-03
7.592e-03
8.565e-03
8.690e-03
7.716e-03
9.568e-03
1.059e-02
1.071e-02
9.692e-03
1.162e-02
1.265e-02
1.276e-02
1.174e-02
0.000e+00
1.802e-05
0.000e+00
3.374e-05
7.807e-05
1.146e-04
1.494e-04
4.540e-05
0.000e+00
1.864e-04
2.404e-04
3.445e-04
4.125e-04
4.752e-04
2.923e-04
5.557e-04
6.321e-04
8.248e-04
9.072e-04
9.810e-04
7.007e-04
1.157e-03
1.244e-03
1.558e-03
1.650e-03
1.735e-03
1.323e-03
2.032e-03
2.125e-03
2.215e-03
0.000e+00
5.480e-05
1.801e-04
2.031e-04
6.251e-05
0.000e+00
3.376e-04
5.267e-04
5.625e-04
3.693e-04
7.578e-04
1.044e-03
1.093e-03
7.995e-04
1.394e-03
1.814e-03
1.885e-03
1.454e-03
2.301e-03
2.384e-03
0.000e+00
6.754e-05
2.156e-04
2.158e-04
6.859e-05
0.000e+00
3.847e-04
5.815e-04
5.855e-04
3.839e-04
8.261e-04
1.131e-03
1.160e-03
8.407e-04
1.505e-03
1.950e-03
2.011e-03
1.550e-03
2.464e-03
2.544e-03
0.000e+00
6.499e-05
2.043e-04
1.845e-04
5.713e-05
0.000e+00
3.700e-04
5.795e-04
5.718e-04
3.502e-04
8.488e-04
1.185e-03
1.214e-03
8.581e-04
1.594e-03
2.073e-03
2.139e-03
1.641e-03
2.625e-03
2.709e-03
0.000e+00
4.730e-05
1.643e-04
1.596e-04
4.279e-05
0.000e+00
3.364e-04
5.734e-04
5.982e-04
3.445e-04
8.781e-04
1.253e-03
1.312e-03
9.208e-04
1.699e-03
2.213e-03
2.299e-03
1.772e-03
2.797e-03
2.892e-03
4.271e-03
4.159e-03
5.052e-03
4.933e-03
4.812e-03
4.046e-03
5.890e-03
5.766e-03
6.780e-03
6.653e-03
6.523e-03
5.639e-03
7.716e-03
7.587e-03
8.690e-03
8.561e-03
8.429e-03
7.455e-03
9.692e-03
9.564e-03
1.071e-02
1.059e-02
1.046e-02
9.436e-03
1.174e-02
1.162e-02
1.276e-02
1.265e-02
1.254e-02
1.150e-02
3.934e-03
4.691e-03
4.570e-03
3.822e-03
5.512e-03
6.392e-03
6.262e-03
5.385e-03
7.323e-03
8.298e-03
8.167e-03
7.192e-03
9.306e-03
1.034e-02
1.021e-02
9.178e-03
1.138e-02
1.243e-02
1.231e-02
1.126e-02
3.712e-03
4.452e-03
4.337e-03
3.604e-03
5.262e-03
6.134e-03
6.010e-03
5.141e-03
7.062e-03
8.038e-03
7.912e-03
6.936e-03
9.051e-03
1.009e-02
9.969e-03
8.927e-03
1.114e-02
1.220e-02
1.209e-02
1.103e-02
3.498e-03
4.226e-03
4.117e-03
3.394e-03
5.025e-03
5.890e-03
5.773e-03
4.912e-03
6.814e-03
7.788e-03
7.667e-03
6.694e-03
8.804e-03
9.849e-03
9.730e-03
8.684e-03
1.091e-02
1.198e-02
1.186e-02
1.079e-02
3.298e-03
4.019e-03
4.809e-03
5.665e-03
6.582e-03
7.553e-03
8.569e-03
9.616e-03
1.068e-02
1.175e-02
0.000e+00
4.658e-05
0.000e+00
5.241e-05
1.632e-04
1.666e-04
1.830e-04
6.366e-05
0.000e+00
3.474e-04
3.370e-04
6.010e-04
5.800e-04
5.664e-04
3.381e-04
9.232e-04
8.865e-04
1.315e-03
1.263e-03
1.216e-03
8.571e-04
1.774e-03
1.707e-03
2.301e-03
2.221e-03
2.144e-03
1.645e-03
2.894e-03
2.802e-03
2.712e-03
0.000e+00
7.061e-05
1.970e-04
2.017e-04
7.150e-05
0.000e+00
3.448e-04
5.573e-04
5.490e-04
3.478e-04
8.326e-04
1.174e-03
1.134e-03
8.096e-04
1.586e-03
2.068e-03
1.995e-03
1.529e-03
2.622e-03
2.534e-03
0.000e+00
6.771e-05
1.958e-04
1.801e-04
5.995e-05
0.000e+00
3.414e-04
5.358e-04
5.126e-04
3.232e-04
7.847e-04
1.095e-03
1.052e-03
7.532e-04
1.473e-03
1.922e-03
1.850e-03
1.415e-03
2.446e-03
2.359e-03
0.000e+00
4.945e-05
1.571e-04
1.278e-04
3.690e-05
0.000e+00
2.949e-04
4.789e-04
4.342e-04
2.575e-04
7.131e-04
1.002e-03
9.434e-04
6.615e-04
1.355e-03
1.776e-03
1.699e-03
1.287e-03
2.272e-03
2.185e-03
0.000e+00
2.516e-05
9.932e-05
2.189e-04
3.870e-04
6.067e-04
8.825e-04
1.221e-03
1.627e-03
2.104e-03
3.651e-03
3.651e-03
3.650e-03
3.750e-03
3.751e-03
3.751e-03
3.650e-03
3.650e-03
3.749e-03
3.750e-03
3.649e-03
3.649e-03
3.748e-03
3.749e-03
3.851e-03
3.850e-03
3.849e-03
3.948e-03
3.948e-03
3.949e-03
3.848e-03
3.848e-03
3.946e-03
3.947e-03
3.847e-03
3.847e-03
3.944e-03
3.945e-03
4.047e-03
4.046e-03
4.045e-03
4.142e-03
4.143e-03
4.144e-03
4.044e-03
4.043e-03
4.140e-03
4.141e-03
4.043e-03
4.042e-03
4.139e-03
4.139e-03
4.240e-03
4.239e-03
4.238e-03
4.335e-03
4.335e-03
4.336e-03
4.238e-03
4.237e-03
4.333e-03
4.334e-03
4.236e-03
4.235e-03
4.332e-03
4.333e-03
4.432e-03
4.431e-03
4.431e-03
4.528e-03
4.528e-03
4.528e-03
4.430e-03
4.430e-03
4.527e-03
4.527e-03
4.430e-03
4.429e-03
4.527e-03
4.527e-03
4.270e-03
4.270e-03
5.051e-03
5.052e-03
4.270e-03
4.270e-03
5.051e-03
5.051e-03
4.270e-03
5.051e-03
5.890e-03
5.890e-03
6.780e-03
6.780e-03
5.890e-03
5.890e-03
6.780e-03
6.780e-03
5.890e-03
6.780e-03
7.716e-03
7.716e-03
8.690e-03
8.690e-03
7.716e-03
7.716e-03
8.690e-03
8.690e-03
7.716e-03
8.690e-03
9.692e-03
9.692e-03
1.071e-02
1.071e-02
9.692e-03
9.692e-03
1.071e-02
1.071e-02
9.692e-03
1.071e-02
1.174e-02
1.174e-02
1.276e-02
1.276e-02
1.174e-02
1.174e-02
1.276e-02
1.276e-02
1.174e-02
1.276e-02
0.000e+00
4.254e-05
1.595e-04
1.596e-04
4.266e-05
0.000e+00
3.444e-04
5.981e-04
5.982e-04
3.445e-04
9.207e-04
1.312e-03
1.312e-03
9.208e-04
1.772e-03
2.299e-03
2.299e-03
1.772e-03
2.892e-03
2.892e-03
0.000e+00
4.310e-05
1.601e-04
1.609e-04
4.389e-05
0.000e+00
3.449e-04
5.985e-04
5.991e-04
3.455e-04
9.211e-04
1.313e-03
1.313e-03
9.216e-04
1.772e-03
2.299e-03
2.300e-03
1.773e-03
2.892e-03
2.892e-03
0.000e+00
4.504e-05
1.619e-04
3.463e-04
6.000e-04
9.223e-04
1.314e-03
1.773e-03
2.300e-03
2.893e-03
4.375e-03
5.168e-03
5.291e-03
4.483e-03
6.014e-03
6.908e-03
7.043e-03
6.146e-03
7.846e-03
8.821e-03
8.956e-03
7.982e-03
9.821e-03
1.084e-02
1.097e-02
9.956e-03
1.186e-02
1.288e-02
1.299e-02
1.198e-02
4.594e-03
5.416e-03
5.540e-03
4.704e-03
6.278e-03
7.178e-03
7.311e-03
6.407e-03
8.119e-03
9.093e-03
9.228e-03
8.254e-03
1.009e-02
1.110e-02
1.123e-02
1.022e-02
1.211e-02
1.310e-02
1.322e-02
1.223e-02
4.814e-03
5.658e-03
5.771e-03
4.921e-03
6.530e-03
7.437e-03
7.558e-03
6.646e-03
8.383e-03
9.358e-03
9.483e-03
8.506e-03
1.035e-02
1.136e-02
1.148e-02
1.048e-02
1.235e-02
1.333e-02
1.344e-02
1.247e-02
5.025e-03
5.876e-03
5.975e-03
5.125e-03
6.754e-03
7.671e-03
7.779e-03
6.857e-03
8.623e-03
9.603e-03
9.719e-03
8.736e-03
1.060e-02
1.160e-02
1.172e-02
1.072e-02