TITLE="Adjoint Convergence History"
VARIABLES="Iteration" "R_1" "R_2" "R_3" "R_4" "R_5" "Simulation_Time"
ZONE I=100 F=POINT
1  0.0000000000E+00  0.0000000000E+00  0.0000000000E+00  0.0000000000E+00  0.0000000000E+00  0.6053700000E+02
2  0.1255560085E-10  0.4638936305E-10  0.3379198003E-11  0.4841127039E-12  0.8658314609E-10  0.8490970000E+02
3  0.1243026084E-08  0.4594792996E-08  0.3426250380E-09  0.6299700316E-10  0.8577345855E-08  0.1102725000E+03
4  0.3065208492E-08  0.7711689041E-08  0.9363860581E-08  0.4155574501E-08  0.2737606022E-08  0.1400039000E+03
5  0.3751956539E-08  0.9129443439E-08  0.9326122856E-08  0.5870218841E-08  0.2440386410E-08  0.1655330000E+03
6  0.1001377358E-07  0.9385440439E-08  0.1004578330E-07  0.8311465669E-08  0.4693403413E-08  0.1908012000E+03
7  0.1905685350E-07  0.1022517248E-07  0.1179322899E-07  0.7881693623E-08  0.8781140343E-08  0.2186560000E+03
8  0.1894013456E-07  0.1095586749E-07  0.1313653887E-07  0.8308846191E-08  0.8729181450E-08  0.2434611000E+03
9  0.1356660123E-07  0.1089508750E-07  0.1370551965E-07  0.9796858188E-08  0.6309405208E-08  0.2694449000E+03
10  0.1207296928E-07  0.1030075139E-07  0.1457505454E-07  0.1050933567E-07  0.5706809677E-08  0.2989950000E+03
11  0.1547912038E-07  0.1041506275E-07  0.1540656470E-07  0.1106958934E-07  0.7236124247E-08  0.3276803000E+03
12  0.1909406439E-07  0.1077728042E-07  0.1542884526E-07  0.1113124183E-07  0.8883327369E-08  0.3551265000E+03
13  0.1868004055E-07  0.1044598932E-07  0.1483543902E-07  0.1050707073E-07  0.8717762692E-08  0.3799547000E+03
14  0.1466529650E-07  0.9722358203E-08  0.1392650238E-07  0.9668342583E-08  0.6871294326E-08  0.4060021000E+03
15  0.1058750550E-07  0.9026253401E-08  0.1271706452E-07  0.8704349391E-08  0.4951752179E-08  0.4341437000E+03
16  0.8299371928E-08  0.8414605885E-08  0.1130786321E-07  0.7622723763E-08  0.3857102256E-08  0.4616674000E+03
17  0.7063813481E-08  0.7870214864E-08  0.9866019936E-08  0.6619425157E-08  0.3264492318E-08  0.4882087000E+03
18  0.6413259336E-08  0.7303376421E-08  0.8465014385E-08  0.5749560409E-08  0.2933975278E-08  0.5172165000E+03
19  0.6065537894E-08  0.6651293774E-08  0.7143908749E-08  0.4953382429E-08  0.2757058817E-08  0.5426090000E+03
20  0.5546311133E-08  0.5954080278E-08  0.5953377475E-08  0.4218391119E-08  0.2535036210E-08  0.5671102000E+03
21  0.4640942130E-08  0.5261798865E-08  0.4927548994E-08  0.3566447755E-08  0.2146336651E-08  0.5949914000E+03
22  0.3548348304E-08  0.4596232343E-08  0.4066384532E-08  0.3005573793E-08  0.1652716160E-08  0.6197323000E+03
23  0.2730458220E-08  0.3978609707E-08  0.3343231553E-08  0.2520446704E-08  0.1263874614E-08  0.6474730000E+03
24  0.2416250164E-08  0.3431419940E-08  0.2731794427E-08  0.2095123610E-08  0.1114570093E-08  0.6737365000E+03
25  0.2284651680E-08  0.2960489027E-08  0.2223696002E-08  0.1727867592E-08  0.1068955489E-08  0.6985385000E+03
26  0.2018006541E-08  0.2552698468E-08  0.1815175631E-08  0.1422712533E-08  0.9634072220E-09  0.7250695000E+03
27  0.1639742590E-08  0.2190753479E-08  0.1489091622E-08  0.1175212167E-08  0.7955957998E-09  0.7495124000E+03
28  0.1403542706E-08  0.1867288441E-08  0.1221478631E-08  0.9688046282E-09  0.6764317657E-09  0.7748918000E+03
29  0.1457611607E-08  0.1587350119E-08  0.9974671124E-09  0.7883956806E-09  0.6857779480E-09  0.8019312000E+03
30  0.1573691784E-08  0.1355572106E-08  0.8127393550E-09  0.6334798282E-09  0.7363145496E-09  0.8284780000E+03
31  0.1496233853E-08  0.1161665343E-08  0.6679157291E-09  0.5152384623E-09  0.7075448273E-09  0.8547026000E+03
32  0.1166144117E-08  0.9874475232E-09  0.5632932077E-09  0.4402689785E-09  0.5630810598E-09  0.8797461000E+03
33  0.7327676710E-09  0.8269517013E-09  0.4894510988E-09  0.3930493509E-09  0.3608070086E-09  0.9039006000E+03
34  0.5903428179E-09  0.6915112526E-09  0.4285044225E-09  0.3472653533E-09  0.2710054335E-09  0.9289514000E+03
35  0.7740636974E-09  0.5937783437E-09  0.3726356101E-09  0.2970089565E-09  0.3491019804E-09  0.9525322000E+03
36  0.8413306779E-09  0.5276221020E-09  0.3302166682E-09  0.2612469597E-09  0.3910722175E-09  0.9791061000E+03
37  0.7039332925E-09  0.4711729839E-09  0.3064797268E-09  0.2507329819E-09  0.3387122024E-09  0.1005930100E+04
38  0.5257249760E-09  0.4114670426E-09  0.2896621541E-09  0.2462789430E-09  0.2556748495E-09  0.1033987000E+04
39  0.5468031003E-09  0.3560530752E-09  0.2666614554E-09  0.2295843718E-09  0.2523709037E-09  0.1059997700E+04
40  0.6567513098E-09  0.3176258155E-09  0.2383034755E-09  0.2050025846E-09  0.3010155773E-09  0.1083867200E+04
41  0.6536693212E-09  0.2915991080E-09  0.2142983453E-09  0.1880451358E-09  0.3057357467E-09  0.1109516700E+04
42  0.5160066932E-09  0.2616194689E-09  0.1991942160E-09  0.1826942981E-09  0.2477337710E-09  0.1134567200E+04
43  0.3434748236E-09  0.2226084896E-09  0.1875977280E-09  0.1781543317E-09  0.1664259207E-09  0.1159325100E+04
44  0.3015428681E-09  0.1862372619E-09  0.1732899769E-09  0.1666394455E-09  0.1372550349E-09  0.1183183000E+04
45  0.3639149513E-09  0.1657080338E-09  0.1564531605E-09  0.1508935041E-09  0.1646028316E-09  0.1207106800E+04
46  0.3787258317E-09  0.1570523824E-09  0.1416383883E-09  0.1380936095E-09  0.1759894985E-09  0.1236947400E+04
47  0.3201462740E-09  0.1465872056E-09  0.1314866210E-09  0.1308309460E-09  0.1529165062E-09  0.1262026200E+04
48  0.2423761347E-09  0.1297615521E-09  0.1236887504E-09  0.1251754664E-09  0.1169039640E-09  0.1288285200E+04
49  0.2245741127E-09  0.1127221651E-09  0.1145779236E-09  0.1169629335E-09  0.1045586440E-09  0.1313331900E+04
50  0.2552640487E-09  0.1024434628E-09  0.1035008017E-09  0.1062791126E-09  0.1173263594E-09  0.1336628600E+04
51  0.2639013839E-09  0.9736776313E-10  0.9286921063E-10  0.9627899432E-10  0.1230373407E-09  0.1363449600E+04
52  0.2290009030E-09  0.9078112688E-10  0.8491999684E-10  0.8919649871E-10  0.1089007775E-09  0.1389974600E+04
53  0.1718085300E-09  0.7993442988E-10  0.7904725189E-10  0.8390927336E-10  0.8279368443E-10  0.1415712800E+04
54  0.1377933866E-09  0.6805539813E-10  0.7300022782E-10  0.7790276161E-10  0.6486145792E-10  0.1443728100E+04
55  0.1466820040E-09  0.6032840822E-10  0.6582269766E-10  0.7043298452E-10  0.6725335245E-10  0.1469375600E+04
56  0.1584936089E-09  0.5753414113E-10  0.5865555364E-10  0.6303439625E-10  0.7341356917E-10  0.1497388500E+04
57  0.1471567163E-09  0.5540627653E-10  0.5311962149E-10  0.5751174395E-10  0.6955907899E-10  0.1522127600E+04
58  0.1184393115E-09  0.5082072106E-10  0.4929664921E-10  0.5374916608E-10  0.5694014086E-10  0.1547467100E+04
59  0.9685798409E-10  0.4463500810E-10  0.4578898296E-10  0.5008093385E-10  0.4609815512E-10  0.1572203000E+04
60  0.9910899094E-10  0.3981275803E-10  0.4157546820E-10  0.4548717526E-10  0.4590677945E-10  0.1598429600E+04
61  0.1070146930E-09  0.3761183070E-10  0.3702638311E-10  0.4056933400E-10  0.4962181339E-10  0.1622897600E+04
62  0.1015883904E-09  0.3608278837E-10  0.3323029768E-10  0.3660754587E-10  0.4786398811E-10  0.1651817900E+04
63  0.8237534868E-10  0.3309638568E-10  0.3059447951E-10  0.3393521700E-10  0.3951217310E-10  0.1676578100E+04
64  0.6272704062E-10  0.2875922188E-10  0.2839241104E-10  0.3161056574E-10  0.3008274946E-10  0.1700442000E+04
65  0.5874182148E-10  0.2496556694E-10  0.2580926727E-10  0.2874971598E-10  0.2726579656E-10  0.1726396100E+04
66  0.6458054062E-10  0.2316008716E-10  0.2289493151E-10  0.2552197390E-10  0.2977028436E-10  0.1752050100E+04
67  0.6441620169E-10  0.2247207577E-10  0.2038144784E-10  0.2280425358E-10  0.3016341365E-10  0.1777688600E+04
68  0.5460445873E-10  0.2117882134E-10  0.1873253479E-10  0.2105404811E-10  0.2608716979E-10  0.1804222600E+04
69  0.4207267571E-10  0.1885779375E-10  0.1754870241E-10  0.1974377634E-10  0.2025466653E-10  0.1834407200E+04
70  0.3801930620E-10  0.1649028682E-10  0.1615132485E-10  0.1813447313E-10  0.1778627880E-10  0.1859179100E+04
71  0.4189722303E-10  0.1517321362E-10  0.1439861941E-10  0.1615173962E-10  0.1931665369E-10  0.1882758500E+04
72  0.4307119935E-10  0.1467887627E-10  0.1273601463E-10  0.1434527213E-10  0.2009815465E-10  0.1907911600E+04
73  0.3744193976E-10  0.1390954587E-10  0.1160136860E-10  0.1316185764E-10  0.1781659488E-10  0.1936516500E+04
74  0.2823028373E-10  0.1238516765E-10  0.1086164569E-10  0.1236921320E-10  0.1361992939E-10  0.1963676000E+04
75  0.2313485283E-10  0.1062849578E-10  0.1004555279E-10  0.1142904081E-10  0.1089032520E-10  0.1990226000E+04
76  0.2505540209E-10  0.9520187541E-11  0.8966863703E-11  0.1018714752E-10  0.1149237922E-10  0.2018402100E+04
77  0.2685924817E-10  0.9184724888E-11  0.7885709037E-11  0.8980342454E-11  0.1244930686E-10  0.2044349600E+04
78  0.2431472151E-10  0.8880320417E-11  0.7152331977E-11  0.8187043430E-11  0.1151243670E-10  0.2069105600E+04
79  0.1874359970E-10  0.8097101214E-11  0.6743815898E-11  0.7731223232E-11  0.9039943340E-11  0.2094152600E+04
80  0.1501731518E-10  0.7041232240E-11  0.6323675426E-11  0.7226473402E-11  0.7120710862E-11  0.2120102200E+04
81  0.1608102001E-10  0.6287108030E-11  0.5701537458E-11  0.6495136255E-11  0.7387091687E-11  0.2146055000E+04
82  0.1766198644E-10  0.6033193459E-11  0.5010485313E-11  0.5720228370E-11  0.8165062673E-11  0.2172304700E+04
83  0.1641516265E-10  0.5853241140E-11  0.4504731448E-11  0.5180481138E-11  0.7743162428E-11  0.2197953600E+04
84  0.1271460176E-10  0.5359830990E-11  0.4228765890E-11  0.4884911076E-11  0.6123149825E-11  0.2224480100E+04
85  0.9471875505E-11  0.4627060817E-11  0.3979839491E-11  0.4589452052E-11  0.4524656416E-11  0.2253109100E+04
86  0.9563776314E-11  0.4043120569E-11  0.3604075420E-11  0.4142990742E-11  0.4384687774E-11  0.2278767000E+04
87  0.1081700322E-10  0.3833379505E-11  0.3160629394E-11  0.3637098335E-11  0.4970725116E-11  0.2303829500E+04
88  0.1046945011E-10  0.3760903826E-11  0.2821985851E-11  0.3265934159E-11  0.4913717445E-11  0.2331017200E+04
89  0.8389207868E-11  0.3520786376E-11  0.2650039709E-11  0.3074823205E-11  0.4028908399E-11  0.2355941500E+04
90  0.6241335571E-11  0.3101687581E-11  0.2522563181E-11  0.2915089998E-11  0.2998801605E-11  0.2382205100E+04
91  0.6068612899E-11  0.2727568595E-11  0.2316843828E-11  0.2662828119E-11  0.2799019631E-11  0.2412350100E+04
92  0.6930011966E-11  0.2569100962E-11  0.2045304940E-11  0.2349660519E-11  0.3182392998E-11  0.2436837000E+04
93  0.6903325706E-11  0.2517955030E-11  0.1814078726E-11  0.2097618636E-11  0.3230258398E-11  0.2463995600E+04
94  0.5668790087E-11  0.2377790091E-11  0.1686292368E-11  0.1961505133E-11  0.2714336339E-11  0.2488801700E+04
95  0.4097368993E-11  0.2113848243E-11  0.1604154114E-11  0.1864005017E-11  0.1980193831E-11  0.2514572200E+04
96  0.3632019743E-11  0.1853103389E-11  0.1482432381E-11  0.1715297453E-11  0.1685533924E-11  0.2540894700E+04
97  0.4172053083E-11  0.1723882467E-11  0.1312792851E-11  0.1517583577E-11  0.1908845420E-11  0.2565653500E+04
98  0.4343308083E-11  0.1690528586E-11  0.1157996651E-11  0.1345077463E-11  0.2022957359E-11  0.2590685600E+04
99  0.3728442955E-11  0.1626546886E-11  0.1070754025E-11  0.1248959179E-11  0.1778848584E-11  0.2616944300E+04
100  0.2755744786E-11  0.1486170583E-11  0.1025873116E-11  0.1193115846E-11  0.1336299905E-11  0.2644713700E+04
