TITLE="fun3d_case_title"
VARIABLES="Iteration" "R_1" "R_2" "R_3" "R_4" "R_5" "C_L" "C_D" "C_M_x" "C_M_y" "C_M_z" "Wall Time" "C_x" "C_y" "C_z" "C_Lp" "C_Dp" "C_Lv" "C_Dv" "C_M_xp" "C_M_yp" "C_M_zp" "C_M_xv" "C_M_yv" "C_M_zv" "C_xp" "C_yp" "C_zp" "C_xv" "C_yv" "C_zv"
ZONE  I=100 F=POINT
1  0.1211075452E-03  0.6055377262E-04  0.8382154479E-15  0.8710184502E-15  0.3179073063E-03 -0.1732054210E+00  0.3098283781E+01  0.1211024939E+01 -0.1084623185E+02  0.7485745862E+01  0.7881902083E+01  0.3098283781E+01  0.3885693802E+00 -0.1732054210E+00 -0.1732054210E+00  0.3098283781E+01  0.0000000000E+00  0.0000000000E+00  0.1211024939E+01 -0.1084623185E+02  0.7485745862E+01  0.0000000000E+00  0.0000000000E+00  0.0000000000E+00  0.3098283781E+01  0.3885693802E+00 -0.1732054210E+00  0.0000000000E+00  0.0000000000E+00  0.0000000000E+00
2  0.8985403526E-04  0.4225922080E-04  0.5797637946E-04  0.6315693425E-05  0.2375369035E-03 -0.2803540193E+00  0.5098670760E+01  0.1235802585E+01 -0.1773875949E+02  0.1125096977E+02  0.8885769792E+01  0.5098670760E+01  0.3895079423E+00 -0.2803540193E+00 -0.2803540193E+00  0.5098670760E+01  0.0000000000E+00  0.0000000000E+00  0.1235802585E+01 -0.1773875949E+02  0.1125096977E+02  0.0000000000E+00  0.0000000000E+00  0.0000000000E+00  0.5098670760E+01  0.3895079423E+00 -0.2803540193E+00  0.0000000000E+00  0.0000000000E+00  0.0000000000E+00
3  0.7536428006E-04  0.4684152681E-04  0.8958872525E-04  0.9730493496E-05  0.1978570270E-03 -0.2859389009E+00  0.5712045812E+01  0.2449423445E+01 -0.1979048084E+02  0.1242779274E+02  0.9857344792E+01  0.5712045812E+01  0.6902908927E+00 -0.2859389009E+00 -0.2859389009E+00  0.5712045812E+01  0.0000000000E+00  0.0000000000E+00  0.2449423445E+01 -0.1979048084E+02  0.1242779274E+02  0.0000000000E+00  0.0000000000E+00  0.0000000000E+00  0.5712045812E+01  0.6902908927E+00 -0.2859389009E+00  0.0000000000E+00  0.0000000000E+00  0.0000000000E+00
4  0.7597472304E-04  0.6036100544E-04  0.1009527639E-03  0.1373242893E-04  0.1941238000E-03 -0.2079882944E+00  0.5120036919E+01  0.4702050260E+01 -0.1776000853E+02  0.1185639431E+02  0.1085176979E+02  0.5120036919E+01  0.1306188566E+01 -0.2079882944E+00 -0.2079882944E+00  0.5120036919E+01  0.0000000000E+00  0.0000000000E+00  0.4702050260E+01 -0.1776000853E+02  0.1185639431E+02  0.0000000000E+00  0.0000000000E+00  0.0000000000E+00  0.5120036919E+01  0.1306188566E+01 -0.2079882944E+00  0.0000000000E+00  0.0000000000E+00  0.0000000000E+00
5  0.8012132652E-04  0.7510269287E-04  0.1066367053E-03  0.2053156621E-04  0.1992298747E-03 -0.9689381036E-01  0.4045179929E+01  0.7824738024E+01 -0.1408754268E+02  0.1097441602E+02  0.1183239479E+02  0.4045179929E+01  0.2165884720E+01 -0.9689381036E-01 -0.9689381036E-01  0.4045179929E+01  0.0000000000E+00  0.0000000000E+00  0.7824738024E+01 -0.1408754268E+02  0.1097441602E+02  0.0000000000E+00  0.0000000000E+00  0.0000000000E+00  0.4045179929E+01  0.2165884720E+01 -0.9689381036E-01  0.0000000000E+00  0.0000000000E+00  0.0000000000E+00
6  0.7903371392E-04  0.8768209293E-04  0.1108818043E-03  0.2951943241E-04  0.1880945807E-03  0.1778722449E-01  0.3039321916E+01  0.1168371946E+02 -0.1069138401E+02  0.1070032962E+02  0.1281959479E+02  0.3039321916E+01  0.3216085326E+01  0.1778722449E-01  0.1778722449E-01  0.3039321916E+01  0.0000000000E+00  0.0000000000E+00  0.1168371946E+02 -0.1069138401E+02  0.1070032962E+02  0.0000000000E+00  0.0000000000E+00  0.0000000000E+00  0.3039321916E+01  0.3216085326E+01  0.1778722449E-01  0.0000000000E+00  0.0000000000E+00  0.0000000000E+00
7  0.8095562945E-04  0.9757994193E-04  0.1113988019E-03  0.4034170476E-04  0.1853880619E-03  0.1232822988E+00  0.2291187119E+01  0.1573841567E+02 -0.8230747541E+01  0.1108830495E+02  0.1380824479E+02  0.2291187119E+01  0.4332978336E+01  0.1232822988E+00  0.1232822988E+00  0.2291187119E+01  0.0000000000E+00  0.0000000000E+00  0.1573841567E+02 -0.8230747541E+01  0.1108830495E+02  0.0000000000E+00  0.0000000000E+00  0.0000000000E+00  0.2291187119E+01  0.4332978336E+01  0.1232822988E+00  0.0000000000E+00  0.0000000000E+00  0.0000000000E+00
8  0.8767272809E-04  0.1031830379E-03  0.1088240392E-03  0.5110799475E-04  0.1982601073E-03  0.2188170831E+00  0.1759489272E+01  0.1955576841E+02 -0.6558362535E+01  0.1177930575E+02  0.1479236979E+02  0.1759489272E+01  0.5413298690E+01  0.2188170831E+00  0.2188170831E+00  0.1759489272E+01  0.0000000000E+00  0.0000000000E+00  0.1955576841E+02 -0.6558362535E+01  0.1177930575E+02  0.0000000000E+00  0.0000000000E+00  0.0000000000E+00  0.1759489272E+01  0.5413298690E+01  0.2188170831E+00  0.0000000000E+00  0.0000000000E+00  0.0000000000E+00
9  0.9484717399E-04  0.1032298105E-03  0.1054926039E-03  0.5933383093E-04  0.2138517663E-03  0.3053828446E+00  0.1340238536E+01  0.2274448135E+02 -0.5292756650E+01  0.1236713803E+02  0.1577736979E+02  0.1340238536E+01  0.6346447249E+01  0.3053828446E+00  0.3053828446E+00  0.1340238536E+01  0.0000000000E+00  0.0000000000E+00  0.2274448135E+02 -0.5292756650E+01  0.1236713803E+02  0.0000000000E+00  0.0000000000E+00  0.0000000000E+00  0.1340238536E+01  0.6346447249E+01  0.3053828446E+00  0.0000000000E+00  0.0000000000E+00  0.0000000000E+00
10  0.1000836733E-03  0.1008259954E-03  0.1060268079E-03  0.6564876837E-04  0.2267065040E-03  0.3798813898E+00  0.9707204616E+00  0.2489138767E+02 -0.4184253548E+01  0.1256485324E+02  0.1676936979E+02  0.9707204616E+00  0.6999181544E+01  0.3798813898E+00  0.3798813898E+00  0.9707204616E+00  0.0000000000E+00  0.0000000000E+00  0.2489138767E+02 -0.4184253548E+01  0.1256485324E+02  0.0000000000E+00  0.0000000000E+00  0.0000000000E+00  0.9707204616E+00  0.6999181544E+01  0.3798813898E+00  0.0000000000E+00  0.0000000000E+00  0.0000000000E+00
11  0.1013613033E-03  0.1034739410E-03  0.1161205233E-03  0.7527370602E-04  0.2326883428E-03  0.4373053743E+00  0.6432517324E+00  0.2567117825E+02 -0.3179200775E+01  0.1223896376E+02  0.1775736979E+02  0.6432517324E+00  0.7256983441E+01  0.4373053743E+00  0.4373053743E+00  0.6432517324E+00  0.0000000000E+00  0.0000000000E+00  0.2567117825E+02 -0.3179200775E+01  0.1223896376E+02  0.0000000000E+00  0.0000000000E+00  0.0000000000E+00  0.6432517324E+00  0.7256983441E+01  0.4373053743E+00  0.0000000000E+00  0.0000000000E+00  0.0000000000E+00
12  0.9709695757E-04  0.1130118414E-03  0.1324895971E-03  0.9017148722E-04  0.2252404521E-03  0.4749110474E+00  0.3763812684E+00  0.2503579371E+02 -0.2332414173E+01  0.1141342285E+02  0.1874336979E+02  0.3763812684E+00  0.7087378179E+01  0.4749110474E+00  0.4749110474E+00  0.3763812684E+00  0.0000000000E+00  0.0000000000E+00  0.2503579371E+02 -0.2332414173E+01  0.1141342285E+02  0.0000000000E+00  0.0000000000E+00  0.0000000000E+00  0.3763812684E+00  0.7087378179E+01  0.4749110474E+00  0.0000000000E+00  0.0000000000E+00  0.0000000000E+00
13  0.8981047629E-04  0.1216316134E-03  0.1446809849E-03  0.1036268613E-03  0.2077502843E-03  0.5074120263E+00  0.1948281176E+00  0.2383824742E+02 -0.1749448984E+01  0.1035876775E+02  0.1973176979E+02  0.1948281176E+00  0.6670610109E+01  0.5074120263E+00  0.5074120263E+00  0.1948281176E+00  0.0000000000E+00  0.0000000000E+00  0.2383824742E+02 -0.1749448984E+01  0.1035876775E+02  0.0000000000E+00  0.0000000000E+00  0.0000000000E+00  0.1948281176E+00  0.6670610109E+01  0.5074120263E+00  0.0000000000E+00  0.0000000000E+00  0.0000000000E+00
14  0.8563838896E-04  0.1241960327E-03  0.1498458253E-03  0.1097918933E-03  0.1986142341E-03  0.5154119916E+00  0.1030228057E+00  0.2138922557E+02 -0.1445334139E+01  0.9142040893E+01  0.2072336979E+02  0.1030228057E+00  0.5918051099E+01  0.5154119916E+00  0.5154119916E+00  0.1030228057E+00  0.0000000000E+00  0.0000000000E+00  0.2138922557E+02 -0.1445334139E+01  0.9142040893E+01  0.0000000000E+00  0.0000000000E+00  0.0000000000E+00  0.1030228057E+00  0.5918051099E+01  0.5154119916E+00  0.0000000000E+00  0.0000000000E+00  0.0000000000E+00
15  0.8660685801E-04  0.1240768108E-03  0.1580690280E-03  0.1123737239E-03  0.2064084986E-03  0.4953333866E+00  0.1022522699E+00  0.1911413285E+02 -0.1416734358E+01  0.8176495723E+01  0.2172466979E+02  0.1022522699E+00  0.5210837454E+01  0.4953333866E+00  0.4953333866E+00  0.1022522699E+00  0.0000000000E+00  0.0000000000E+00  0.1911413285E+02 -0.1416734358E+01  0.8176495723E+01  0.0000000000E+00  0.0000000000E+00  0.0000000000E+00  0.1022522699E+00  0.5210837454E+01  0.4953333866E+00  0.0000000000E+00  0.0000000000E+00  0.0000000000E+00
16  0.8775931198E-04  0.1257499298E-03  0.1780898343E-03  0.1199513136E-03  0.2125411365E-03  0.4644343455E+00  0.1795633702E+00  0.1758829639E+02 -0.1640352160E+01  0.7694964052E+01  0.2271634479E+02  0.1795633702E+00  0.4711508112E+01  0.4644343455E+00  0.4644343455E+00  0.1795633702E+00  0.0000000000E+00  0.0000000000E+00  0.1758829639E+02 -0.1640352160E+01  0.7694964052E+01  0.0000000000E+00  0.0000000000E+00  0.0000000000E+00  0.1795633702E+00  0.4711508112E+01  0.4644343455E+00  0.0000000000E+00  0.0000000000E+00  0.0000000000E+00
17  0.8568408317E-04  0.1261504552E-03  0.2016247123E-03  0.1318735944E-03  0.2029309971E-03  0.4247405179E+00  0.3113021436E+00  0.1708342103E+02 -0.2032361094E+01  0.7765377943E+01  0.2370546979E+02  0.3113021436E+00  0.4518655771E+01  0.4247405179E+00  0.4247405179E+00  0.3113021436E+00  0.0000000000E+00  0.0000000000E+00  0.1708342103E+02 -0.2032361094E+01  0.7765377943E+01  0.0000000000E+00  0.0000000000E+00  0.0000000000E+00  0.3113021436E+00  0.4518655771E+01  0.4247405179E+00  0.0000000000E+00  0.0000000000E+00  0.0000000000E+00
18  0.8111665654E-04  0.1200554657E-03  0.2161574541E-03  0.1390914288E-03  0.1850331478E-03  0.3848266609E+00  0.4635551292E+00  0.1761043032E+02 -0.2482903923E+01  0.8304884602E+01  0.2476346979E+02  0.4635551292E+00  0.4648883399E+01  0.3848266609E+00  0.3848266609E+00  0.4635551292E+00  0.0000000000E+00  0.0000000000E+00  0.1761043032E+02 -0.2482903923E+01  0.8304884602E+01  0.0000000000E+00  0.0000000000E+00  0.0000000000E+00  0.4635551292E+00  0.4648883399E+01  0.3848266609E+00  0.0000000000E+00  0.0000000000E+00  0.0000000000E+00
19  0.7584778882E-04  0.1081646924E-03  0.2193385288E-03  0.1372116261E-03  0.1739836175E-03  0.3559552993E+00  0.6018284339E+00  0.1891520628E+02 -0.2888686451E+01  0.9115569594E+01  0.2580476979E+02  0.6018284339E+00  0.5032901760E+01  0.3559552993E+00  0.3559552993E+00  0.6018284339E+00  0.0000000000E+00  0.0000000000E+00  0.1891520628E+02 -0.2888686451E+01  0.9115569594E+01  0.0000000000E+00  0.0000000000E+00  0.0000000000E+00  0.6018284339E+00  0.5032901760E+01  0.3559552993E+00  0.0000000000E+00  0.0000000000E+00  0.0000000000E+00
20  0.7132945696E-04  0.9642878520E-04  0.2171403658E-03  0.1301150292E-03  0.1711226098E-03  0.3469418039E+00  0.6995450952E+00  0.2059973003E+02 -0.3174131353E+01  0.9954022026E+01  0.2679734479E+02  0.6995450952E+00  0.5548006800E+01  0.3469418039E+00  0.3469418039E+00  0.6995450952E+00  0.0000000000E+00  0.0000000000E+00  0.2059973003E+02 -0.3174131353E+01  0.9954022026E+01  0.0000000000E+00  0.0000000000E+00  0.0000000000E+00  0.6995450952E+00  0.5548006800E+01  0.3469418039E+00  0.0000000000E+00  0.0000000000E+00  0.0000000000E+00
21  0.6875965734E-04  0.8975019594E-04  0.2139477663E-03  0.1237383868E-03  0.1667641814E-03  0.3653094153E+00  0.7498250419E+00  0.2227883434E+02 -0.3340664327E+01  0.1063001123E+02  0.2778836979E+02  0.7498250419E+00  0.6057233390E+01  0.3653094153E+00  0.3653094153E+00  0.7498250419E+00  0.0000000000E+00  0.0000000000E+00  0.2227883434E+02 -0.3340664327E+01  0.1063001123E+02  0.0000000000E+00  0.0000000000E+00  0.0000000000E+00  0.7498250419E+00  0.6057233390E+01  0.3653094153E+00  0.0000000000E+00  0.0000000000E+00  0.0000000000E+00
22  0.6736113448E-04  0.8774833233E-04  0.2075001666E-03  0.1187371552E-03  0.1569026106E-03  0.4020838774E+00  0.7541156883E+00  0.2356742491E+02 -0.3386716056E+01  0.1100847848E+02  0.2878534479E+02  0.7541156883E+00  0.6444345697E+01  0.4020838774E+00  0.4020838774E+00  0.7541156883E+00  0.0000000000E+00  0.0000000000E+00  0.2356742491E+02 -0.3386716056E+01  0.1100847848E+02  0.0000000000E+00  0.0000000000E+00  0.0000000000E+00  0.7541156883E+00  0.6444345697E+01  0.4020838774E+00  0.0000000000E+00  0.0000000000E+00  0.0000000000E+00
23  0.6417708399E-04  0.8728136352E-04  0.1937686483E-03  0.1112813235E-03  0.1446945349E-03  0.4458982957E+00  0.7258912510E+00  0.2427535712E+02 -0.3346363996E+01  0.1106855193E+02  0.2977634479E+02  0.7258912510E+00  0.6648720888E+01  0.4458982957E+00  0.4458982957E+00  0.7258912510E+00  0.0000000000E+00  0.0000000000E+00  0.2427535712E+02 -0.3346363996E+01  0.1106855193E+02  0.0000000000E+00  0.0000000000E+00  0.0000000000E+00  0.7258912510E+00  0.6648720888E+01  0.4458982957E+00  0.0000000000E+00  0.0000000000E+00  0.0000000000E+00
24  0.5725923120E-04  0.8601945042E-04  0.1725486150E-03  0.9923197656E-04  0.1325478527E-03  0.4840352981E+00  0.6829022966E+00  0.2442651188E+02 -0.3260260220E+01  0.1088938407E+02  0.3077543229E+02  0.6829022966E+00  0.6678146636E+01  0.4840352981E+00  0.4840352981E+00  0.6829022966E+00  0.0000000000E+00  0.0000000000E+00  0.2442651188E+02 -0.3260260220E+01  0.1088938407E+02  0.0000000000E+00  0.0000000000E+00  0.0000000000E+00  0.6829022966E+00  0.6678146636E+01  0.4840352981E+00  0.0000000000E+00  0.0000000000E+00  0.0000000000E+00
25  0.4806321460E-04  0.8290566866E-04  0.1475617821E-03  0.8439178002E-04  0.1195458768E-03  0.5078072654E+00  0.6410277199E+00  0.2420327385E+02 -0.3164481973E+01  0.1060533814E+02  0.3175734479E+02  0.6410277199E+00  0.6591332450E+01  0.5078072654E+00  0.5078072654E+00  0.6410277199E+00  0.0000000000E+00  0.0000000000E+00  0.2420327385E+02 -0.3164481973E+01  0.1060533814E+02  0.0000000000E+00  0.0000000000E+00  0.0000000000E+00  0.6410277199E+00  0.6591332450E+01  0.5078072654E+00  0.0000000000E+00  0.0000000000E+00  0.0000000000E+00
26  0.4026847278E-04  0.7761389408E-04  0.1231573514E-03  0.7029616450E-04  0.1050471187E-03  0.5159871637E+00  0.6108595741E+00  0.2387707791E+02 -0.3086606166E+01  0.1035473140E+02  0.3275036979E+02  0.6108595741E+00  0.6471115548E+01  0.5159871637E+00  0.5159871637E+00  0.6108595741E+00  0.0000000000E+00  0.0000000000E+00  0.2387707791E+02 -0.3086606166E+01  0.1035473140E+02  0.0000000000E+00  0.0000000000E+00  0.0000000000E+00  0.6108595741E+00  0.6471115548E+01  0.5159871637E+00  0.0000000000E+00  0.0000000000E+00  0.0000000000E+00
27  0.3561545973E-04  0.7036409816E-04  0.1015955652E-03  0.5912376322E-04  0.9039694984E-04  0.5124547478E+00  0.5957530403E+00  0.2359098410E+02 -0.3040368587E+01  0.1021579241E+02  0.3374046979E+02  0.5957530403E+00  0.6369823120E+01  0.5124547478E+00  0.5124547478E+00  0.5957530403E+00  0.0000000000E+00  0.0000000000E+00  0.2359098410E+02 -0.3040368587E+01  0.1021579241E+02  0.0000000000E+00  0.0000000000E+00  0.0000000000E+00  0.5957530403E+00  0.6369823120E+01  0.5124547478E+00  0.0000000000E+00  0.0000000000E+00  0.0000000000E+00
28  0.3202438075E-04  0.6183682010E-04  0.8296126839E-04  0.5049547370E-04  0.7730068586E-04  0.5007273346E+00  0.5913294952E+00  0.2351604609E+02 -0.3010946482E+01  0.1022083990E+02  0.3475336979E+02  0.5913294952E+00  0.6342256813E+01  0.5007273346E+00  0.5007273346E+00  0.5913294952E+00  0.0000000000E+00  0.0000000000E+00  0.2351604609E+02 -0.3010946482E+01  0.1022083990E+02  0.0000000000E+00  0.0000000000E+00  0.0000000000E+00  0.5913294952E+00  0.6342256813E+01  0.5007273346E+00  0.0000000000E+00  0.0000000000E+00  0.0000000000E+00
29  0.2728666992E-04  0.5291227665E-04  0.6685677408E-04  0.4292107961E-04  0.6592283717E-04  0.4906371316E+00  0.5942487799E+00  0.2365011154E+02 -0.3003380759E+01  0.1033374349E+02  0.3574336979E+02  0.5942487799E+00  0.6381876492E+01  0.4906371316E+00  0.4906371316E+00  0.5942487799E+00  0.0000000000E+00  0.0000000000E+00  0.2365011154E+02 -0.3003380759E+01  0.1033374349E+02  0.0000000000E+00  0.0000000000E+00  0.0000000000E+00  0.5942487799E+00  0.6381876492E+01  0.4906371316E+00  0.0000000000E+00  0.0000000000E+00  0.0000000000E+00
30  0.2166127000E-04  0.4445692718E-04  0.5340483331E-04  0.3575011588E-04  0.5529261485E-04  0.4861071420E+00  0.6003327619E+00  0.2391164516E+02 -0.3011406571E+01  0.1048949953E+02  0.3673936979E+02  0.6003327619E+00  0.6461986951E+01  0.4861071420E+00  0.4861071420E+00  0.6003327619E+00  0.0000000000E+00  0.0000000000E+00  0.2391164516E+02 -0.3011406571E+01  0.1048949953E+02  0.0000000000E+00  0.0000000000E+00  0.0000000000E+00  0.6003327619E+00  0.6461986951E+01  0.4861071420E+00  0.0000000000E+00  0.0000000000E+00  0.0000000000E+00
31  0.1684787516E-04  0.3699965378E-04  0.4282987645E-04  0.2930708234E-04  0.4499636871E-04  0.4879023144E+00  0.6068322613E+00  0.2420179335E+02 -0.3029245848E+01  0.1062900605E+02  0.3772076979E+02  0.6068322613E+00  0.6550395581E+01  0.4879023144E+00  0.4879023144E+00  0.6068322613E+00  0.0000000000E+00  0.0000000000E+00  0.2420179335E+02 -0.3029245848E+01  0.1062900605E+02  0.0000000000E+00  0.0000000000E+00  0.0000000000E+00  0.6068322613E+00  0.6550395581E+01  0.4879023144E+00  0.0000000000E+00  0.0000000000E+00  0.0000000000E+00
32  0.1384406837E-04  0.3057661190E-04  0.3482833843E-04  0.2417018150E-04  0.3584420343E-04  0.4940871763E+00  0.6127958801E+00  0.2444291974E+02 -0.3052688401E+01  0.1071934221E+02  0.3873136979E+02  0.6127958801E+00  0.6622350556E+01  0.4940871763E+00  0.4940871763E+00  0.6127958801E+00  0.0000000000E+00  0.0000000000E+00  0.2444291974E+02 -0.3052688401E+01  0.1071934221E+02  0.0000000000E+00  0.0000000000E+00  0.0000000000E+00  0.6127958801E+00  0.6622350556E+01  0.4940871763E+00  0.0000000000E+00  0.0000000000E+00  0.0000000000E+00
33  0.1188954007E-04  0.2498834862E-04  0.2871834939E-04  0.2047486747E-04  0.2886719530E-04  0.5015906714E+00  0.6181512501E+00  0.2459946872E+02 -0.3078037868E+01  0.1075790456E+02  0.3969336979E+02  0.6181512501E+00  0.6667073774E+01  0.5015906714E+00  0.5015906714E+00  0.6181512501E+00  0.0000000000E+00  0.0000000000E+00  0.2459946872E+02 -0.3078037868E+01  0.1075790456E+02  0.0000000000E+00  0.0000000000E+00  0.0000000000E+00  0.6181512501E+00  0.6667073774E+01  0.5015906714E+00  0.0000000000E+00  0.0000000000E+00  0.0000000000E+00
34  0.9909913114E-05  0.2020862565E-04  0.2397371566E-04  0.1776234611E-04  0.2394022171E-04  0.5083426715E+00  0.6232716497E+00  0.2468610337E+02 -0.3103707620E+01  0.1076457852E+02  0.4067836979E+02  0.6232716497E+00  0.6689643121E+01  0.5083426715E+00  0.5083426715E+00  0.6232716497E+00  0.0000000000E+00  0.0000000000E+00  0.2468610337E+02 -0.3103707620E+01  0.1076457852E+02  0.0000000000E+00  0.0000000000E+00  0.0000000000E+00  0.6232716497E+00  0.6689643121E+01  0.5083426715E+00  0.0000000000E+00  0.0000000000E+00  0.0000000000E+00
35  0.7708908891E-05  0.1634346796E-04  0.2029014373E-04  0.1542329092E-04  0.1990963852E-04  0.5129516511E+00  0.6275119397E+00  0.2473113856E+02 -0.3125076042E+01  0.1076306716E+02  0.4163036979E+02  0.6275119397E+00  0.6699666990E+01  0.5129516511E+00  0.5129516511E+00  0.6275119397E+00  0.0000000000E+00  0.0000000000E+00  0.2473113856E+02 -0.3125076042E+01  0.1076306716E+02  0.0000000000E+00  0.0000000000E+00  0.0000000000E+00  0.6275119397E+00  0.6699666990E+01  0.5129516511E+00  0.0000000000E+00  0.0000000000E+00  0.0000000000E+00
36  0.5809382752E-05  0.1337915341E-04  0.1744373066E-04  0.1317930646E-04  0.1599629509E-04  0.5156223322E+00  0.6303477287E+00  0.2477077553E+02 -0.3139994423E+01  0.1077147033E+02  0.4261436979E+02  0.6303477287E+00  0.6708634771E+01  0.5156223322E+00  0.5156223322E+00  0.6303477287E+00  0.0000000000E+00  0.0000000000E+00  0.2477077553E+02 -0.3139994423E+01  0.1077147033E+02  0.0000000000E+00  0.0000000000E+00  0.0000000000E+00  0.6303477287E+00  0.6708634771E+01  0.5156223322E+00  0.0000000000E+00  0.0000000000E+00  0.0000000000E+00
37  0.4624430281E-05  0.1098504956E-04  0.1519742445E-04  0.1118430916E-04  0.1250577099E-04  0.5169772178E+00  0.6312634438E+00  0.2482438973E+02 -0.3146619450E+01  0.1079544267E+02  0.4356636979E+02  0.6312634438E+00  0.6722683797E+01  0.5169772178E+00  0.5169772178E+00  0.6312634438E+00  0.0000000000E+00  0.0000000000E+00  0.2482438973E+02 -0.3146619450E+01  0.1079544267E+02  0.0000000000E+00  0.0000000000E+00  0.0000000000E+00  0.6312634438E+00  0.6722683797E+01  0.5169772178E+00  0.0000000000E+00  0.0000000000E+00  0.0000000000E+00
38  0.3917828192E-05  0.8846436765E-05  0.1341455156E-04  0.9701230300E-05  0.9813521070E-05  0.5178892902E+00  0.6304262383E+00  0.2489842196E+02 -0.3146149924E+01  0.1083213133E+02  0.4455336979E+02  0.6304262383E+00  0.6743553383E+01  0.5178892902E+00  0.5178892902E+00  0.6304262383E+00  0.0000000000E+00  0.0000000000E+00  0.2489842196E+02 -0.3146149924E+01  0.1083213133E+02  0.0000000000E+00  0.0000000000E+00  0.0000000000E+00  0.6304262383E+00  0.6743553383E+01  0.5178892902E+00  0.0000000000E+00  0.0000000000E+00  0.0000000000E+00
39  0.3289724516E-05  0.6947646743E-05  0.1207454548E-04  0.8732325872E-05  0.8038828577E-05  0.5189158528E+00  0.6287683972E+00  0.2498105577E+02 -0.3142088852E+01  0.1087111677E+02  0.4551346979E+02  0.6287683972E+00  0.6767354298E+01  0.5189158528E+00  0.5189158528E+00  0.6287683972E+00  0.0000000000E+00  0.0000000000E+00  0.2498105577E+02 -0.3142088852E+01  0.1087111677E+02  0.0000000000E+00  0.0000000000E+00  0.0000000000E+00  0.6287683972E+00  0.6767354298E+01  0.5189158528E+00  0.0000000000E+00  0.0000000000E+00  0.0000000000E+00
40  0.2622051364E-05  0.5469577073E-05  0.1111454371E-04  0.8008929701E-05  0.6690684900E-05  0.5202766891E+00  0.6273247362E+00  0.2506305308E+02 -0.3138301240E+01  0.1090632155E+02  0.4649936979E+02  0.6273247362E+00  0.6791047801E+01  0.5202766891E+00  0.5202766891E+00  0.6273247362E+00  0.0000000000E+00  0.0000000000E+00  0.2506305308E+02 -0.3138301240E+01  0.1090632155E+02  0.0000000000E+00  0.0000000000E+00  0.0000000000E+00  0.6273247362E+00  0.6791047801E+01  0.5202766891E+00  0.0000000000E+00  0.0000000000E+00  0.0000000000E+00
41  0.2066533840E-05  0.4448572782E-05  0.1041095781E-04  0.7344410014E-05  0.5487630640E-05  0.5218884772E+00  0.6270099909E+00  0.2513237773E+02 -0.3138124440E+01  0.1093299393E+02  0.4745236979E+02  0.6270099909E+00  0.6810912450E+01  0.5218884772E+00  0.5218884772E+00  0.6270099909E+00  0.0000000000E+00  0.0000000000E+00  0.2513237773E+02 -0.3138124440E+01  0.1093299393E+02  0.0000000000E+00  0.0000000000E+00  0.0000000000E+00  0.6270099909E+00  0.6810912450E+01  0.5218884772E+00  0.0000000000E+00  0.0000000000E+00  0.0000000000E+00
42  0.1712622342E-05  0.3704642116E-05  0.9801579416E-05  0.6718322389E-05  0.4428994310E-05  0.5235973236E+00  0.6280534456E+00  0.2518928919E+02 -0.3142586197E+01  0.1095327773E+02  0.4843736979E+02  0.6280534456E+00  0.6827075015E+01  0.5235973236E+00  0.5235973236E+00  0.6280534456E+00  0.0000000000E+00  0.0000000000E+00  0.2518928919E+02 -0.3142586197E+01  0.1095327773E+02  0.0000000000E+00  0.0000000000E+00  0.0000000000E+00  0.6280534456E+00  0.6827075015E+01  0.5235973236E+00  0.0000000000E+00  0.0000000000E+00  0.0000000000E+00
43  0.1492735161E-05  0.3072735705E-05  0.9219934053E-05  0.6188450873E-05  0.3708657903E-05  0.5252257815E+00  0.6300043299E+00  0.2523484057E+02 -0.3150337447E+01  0.1096966419E+02  0.4939146979E+02  0.6300043299E+00  0.6839947811E+01  0.5252257815E+00  0.5252257815E+00  0.6300043299E+00  0.0000000000E+00  0.0000000000E+00  0.2523484057E+02 -0.3150337447E+01  0.1096966419E+02  0.0000000000E+00  0.0000000000E+00  0.0000000000E+00  0.6300043299E+00  0.6839947811E+01  0.5252257815E+00  0.0000000000E+00  0.0000000000E+00  0.0000000000E+00
44  0.1273938301E-05  0.2552927139E-05  0.8631184700E-05  0.5730125826E-05  0.3213818401E-05  0.5267098907E+00  0.6321984961E+00  0.2527562773E+02 -0.3159208360E+01  0.1098582847E+02  0.5037456979E+02  0.6321984961E+00  0.6851556374E+01  0.5267098907E+00  0.5267098907E+00  0.6321984961E+00  0.0000000000E+00  0.0000000000E+00  0.2527562773E+02 -0.3159208360E+01  0.1098582847E+02  0.0000000000E+00  0.0000000000E+00  0.0000000000E+00  0.6321984961E+00  0.6851556374E+01  0.5267098907E+00  0.0000000000E+00  0.0000000000E+00  0.0000000000E+00
45  0.1052037496E-05  0.2198442912E-05  0.8036351318E-05  0.5289030661E-05  0.2795803817E-05  0.5280123523E+00  0.6339149898E+00  0.2531393300E+02 -0.3166626556E+01  0.1100248963E+02  0.5131936979E+02  0.6339149898E+00  0.6862564304E+01  0.5280123523E+00  0.5280123523E+00  0.6339149898E+00  0.0000000000E+00  0.0000000000E+00  0.2531393300E+02 -0.3166626556E+01  0.1100248963E+02  0.0000000000E+00  0.0000000000E+00  0.0000000000E+00  0.6339149898E+00  0.6862564304E+01  0.5280123523E+00  0.0000000000E+00  0.0000000000E+00  0.0000000000E+00
46  0.8740350347E-06  0.1962738568E-05  0.7420553530E-05  0.4834033183E-05  0.2381291647E-05  0.5291484602E+00  0.6348988536E+00  0.2535107912E+02 -0.3171522856E+01  0.1101933330E+02  0.5226836979E+02  0.6348988536E+00  0.6873309158E+01  0.5291484602E+00  0.5291484602E+00  0.6348988536E+00  0.0000000000E+00  0.0000000000E+00  0.2535107912E+02 -0.3171522856E+01  0.1101933330E+02  0.0000000000E+00  0.0000000000E+00  0.0000000000E+00  0.6348988536E+00  0.6873309158E+01  0.5291484602E+00  0.0000000000E+00  0.0000000000E+00  0.0000000000E+00
47  0.7709088443E-06  0.1759949687E-05  0.6793898359E-05  0.4389834937E-05  0.2067664241E-05  0.5301444777E+00  0.6352649277E+00  0.2538640138E+02 -0.3174099286E+01  0.1103532221E+02  0.5321336979E+02  0.6352649277E+00  0.6883545043E+01  0.5301444777E+00  0.5301444777E+00  0.6352649277E+00  0.0000000000E+00  0.0000000000E+00  0.2538640138E+02 -0.3174099286E+01  0.1103532221E+02  0.0000000000E+00  0.0000000000E+00  0.0000000000E+00  0.6352649277E+00  0.6883545043E+01  0.5301444777E+00  0.0000000000E+00  0.0000000000E+00  0.0000000000E+00
48  0.6991192368E-06  0.1566800153E-05  0.6181169190E-05  0.3983078600E-05  0.1859893884E-05  0.5310329156E+00  0.6353209750E+00  0.2542041027E+02 -0.3175311405E+01  0.1105039796E+02  0.5419536979E+02  0.6353209750E+00  0.6893417545E+01  0.5310329156E+00  0.5310329156E+00  0.6353209750E+00  0.0000000000E+00  0.0000000000E+00  0.2542041027E+02 -0.3175311405E+01  0.1105039796E+02  0.0000000000E+00  0.0000000000E+00  0.0000000000E+00  0.6353209750E+00  0.6893417545E+01  0.5310329156E+00  0.0000000000E+00  0.0000000000E+00  0.0000000000E+00
49  0.6286512665E-06  0.1402407176E-05  0.5611846727E-05  0.3621648746E-05  0.1704110044E-05  0.5318465594E+00  0.6354264002E+00  0.2544977512E+02 -0.3176383082E+01  0.1106310906E+02  0.5514136979E+02  0.6354264002E+00  0.6901914682E+01  0.5318465594E+00  0.5318465594E+00  0.6354264002E+00  0.0000000000E+00  0.0000000000E+00  0.2544977512E+02 -0.3176383082E+01  0.1106310906E+02  0.0000000000E+00  0.0000000000E+00  0.0000000000E+00  0.6354264002E+00  0.6901914682E+01  0.5318465594E+00  0.0000000000E+00  0.0000000000E+00  0.0000000000E+00
50  0.5528262108E-06  0.1265196269E-05  0.5085904822E-05  0.3286657735E-05  0.1525389560E-05  0.5326025180E+00  0.6357625220E+00  0.2547487969E+02 -0.3178056494E+01  0.1107396297E+02  0.5609136979E+02  0.6357625220E+00  0.6909182671E+01  0.5326025180E+00  0.5326025180E+00  0.6357625220E+00  0.0000000000E+00  0.0000000000E+00  0.2547487969E+02 -0.3178056494E+01  0.1107396297E+02  0.0000000000E+00  0.0000000000E+00  0.0000000000E+00  0.6357625220E+00  0.6909182671E+01  0.5326025180E+00  0.0000000000E+00  0.0000000000E+00  0.0000000000E+00
51  0.4902928053E-06  0.1140041794E-05  0.4602167250E-05  0.2975309368E-05  0.1350947780E-05  0.5333088280E+00  0.6363215619E+00  0.2549666167E+02 -0.3180436167E+01  0.1108362722E+02  0.5703236979E+02  0.6363215619E+00  0.6915519370E+01  0.5333088280E+00  0.5333088280E+00  0.6363215619E+00  0.0000000000E+00  0.0000000000E+00  0.2549666167E+02 -0.3180436167E+01  0.1108362722E+02  0.0000000000E+00  0.0000000000E+00  0.0000000000E+00  0.6363215619E+00  0.6915519370E+01  0.5333088280E+00  0.0000000000E+00  0.0000000000E+00  0.0000000000E+00
52  0.4379538937E-06  0.1020428833E-05  0.4157082531E-05  0.2690209304E-05  0.1196859284E-05  0.5339647611E+00  0.6370147230E+00  0.2551707626E+02 -0.3183283306E+01  0.1109305254E+02  0.5800146979E+02  0.6370147230E+00  0.6921511064E+01  0.5339647611E+00  0.5339647611E+00  0.6370147230E+00  0.0000000000E+00  0.0000000000E+00  0.2551707626E+02 -0.3183283306E+01  0.1109305254E+02  0.0000000000E+00  0.0000000000E+00  0.0000000000E+00  0.6370147230E+00  0.6921511064E+01  0.5339647611E+00  0.0000000000E+00  0.0000000000E+00  0.0000000000E+00
53  0.3926542892E-06  0.9142437087E-06  0.3752042180E-05  0.2433662809E-05  0.1072798036E-05  0.5345872069E+00  0.6376559942E+00  0.2553541411E+02 -0.3186010205E+01  0.1110177335E+02  0.5894136979E+02  0.6376559942E+00  0.6926907815E+01  0.5345872069E+00  0.5345872069E+00  0.6376559942E+00  0.0000000000E+00  0.0000000000E+00  0.2553541411E+02 -0.3186010205E+01  0.1110177335E+02  0.0000000000E+00  0.0000000000E+00  0.0000000000E+00  0.6376559942E+00  0.6926907815E+01  0.5345872069E+00  0.0000000000E+00  0.0000000000E+00  0.0000000000E+00
54  0.3486266440E-06  0.8225729761E-06  0.3379257659E-05  0.2196281569E-05  0.9525952669E-06  0.5351610620E+00  0.6381649232E+00  0.2555206953E+02 -0.3188288812E+01  0.1110982604E+02  0.5986836979E+02  0.6381649232E+00  0.6931813947E+01  0.5351610620E+00  0.5351610620E+00  0.6381649232E+00  0.0000000000E+00  0.0000000000E+00  0.2555206953E+02 -0.3188288812E+01  0.1110982604E+02  0.0000000000E+00  0.0000000000E+00  0.0000000000E+00  0.6381649232E+00  0.6931813947E+01  0.5351610620E+00  0.0000000000E+00  0.0000000000E+00  0.0000000000E+00