TITLE="fun3d_case_title"
VARIABLES="Iteration" "R_1" "R_2" "R_3" "R_4" "R_5" "C_L" "C_D" "C_M_x" "C_M_y" "C_M_z" "Wall Time" "C_x" "C_y" "C_z" "C_Lp" "C_Dp" "C_Lv" "C_Dv" "C_M_xp" "C_M_yp" "C_M_zp" "C_M_xv" "C_M_yv" "C_M_zv" "C_xp" "C_yp" "C_zp" "C_xv" "C_yv" "C_zv"
ZONE  I=5 F=POINT
1  0.3198382521E-03  0.1599191261E-03  0.1855433147E-14  0.1833190142E-14  0.8395754118E-03 -0.8229080749E-01  0.1598223655E+01  0.2099073306E+01 -0.1047314183E+02  0.6648768102E+01  0.7393493750E+01  0.1598223655E+01  0.2903913690E+00 -0.8229080749E-01 -0.8229080749E-01  0.1598223655E+01  0.0000000000E+00  0.0000000000E+00  0.2099073306E+01 -0.1047314183E+02  0.6648768102E+01  0.0000000000E+00  0.0000000000E+00  0.0000000000E+00  0.1598223655E+01  0.2903913690E+00 -0.8229080749E-01  0.0000000000E+00  0.0000000000E+00  0.0000000000E+00
2  0.3076780922E-03  0.1490354141E-03  0.2817045653E-04  0.2261360098E-05  0.8078456679E-03 -0.1631699438E+00  0.3203116380E+01  0.3864063467E+01 -0.2099021175E+02  0.1318757669E+02  0.8430232292E+01  0.3203116380E+01  0.5337419385E+00 -0.1631699438E+00 -0.1631699438E+00  0.3203116380E+01  0.0000000000E+00  0.0000000000E+00  0.3864063467E+01 -0.2099021175E+02  0.1318757669E+02  0.0000000000E+00  0.0000000000E+00  0.0000000000E+00  0.3203116380E+01  0.5337419385E+00 -0.1631699438E+00  0.0000000000E+00  0.0000000000E+00  0.0000000000E+00
3  0.2959025187E-03  0.1391506086E-03  0.5596270915E-04  0.4286318778E-05  0.7772188535E-03 -0.2419670358E+00  0.4803899463E+01  0.5264882885E+01 -0.3148068350E+02  0.1956284495E+02  0.9457132292E+01  0.4803899463E+01  0.7259125172E+00 -0.2419670358E+00 -0.2419670358E+00  0.4803899463E+01  0.0000000000E+00  0.0000000000E+00  0.5264882885E+01 -0.3148068350E+02  0.1956284495E+02  0.0000000000E+00  0.0000000000E+00  0.0000000000E+00  0.4803899463E+01  0.7259125172E+00 -0.2419670358E+00  0.0000000000E+00  0.0000000000E+00  0.0000000000E+00
4  0.2837973193E-03  0.1298374454E-03  0.8290689521E-04  0.6013029440E-05  0.7456761082E-03 -0.3178284718E+00  0.6384794962E+01  0.6283050167E+01 -0.4184105880E+02  0.2570542671E+02  0.1049563229E+02  0.6384794962E+01  0.8643907201E+00 -0.3178284718E+00 -0.3178284718E+00  0.6384794962E+01  0.0000000000E+00  0.0000000000E+00  0.6283050167E+01 -0.4184105880E+02  0.2570542671E+02  0.0000000000E+00  0.0000000000E+00  0.0000000000E+00  0.6384794962E+01  0.8643907201E+00 -0.3178284718E+00  0.0000000000E+00  0.0000000000E+00  0.0000000000E+00
5  0.2719795048E-03  0.1216732066E-03  0.1087706227E-03  0.7468514354E-05  0.7148371515E-03 -0.3899978712E+00  0.7930849026E+01  0.6912497533E+01 -0.5197344301E+02  0.3155404638E+02  0.1153160729E+02  0.7930849026E+01  0.9484129509E+00 -0.3899978712E+00 -0.3899978712E+00  0.7930849026E+01  0.0000000000E+00  0.0000000000E+00  0.6912497533E+01 -0.5197344301E+02  0.3155404638E+02  0.0000000000E+00  0.0000000000E+00  0.0000000000E+00  0.7930849026E+01  0.9484129509E+00 -0.3899978712E+00  0.0000000000E+00  0.0000000000E+00  0.0000000000E+00
