TITLE="Adjoint Convergence History"
VARIABLES="Iteration" "R_1" "R_2" "R_3" "R_4" "R_5" "Simulation_Time"
ZONE I=5 F=POINT
1  0.0000000000E+00  0.0000000000E+00  0.0000000000E+00  0.0000000000E+00  0.0000000000E+00  0.9384600000E+01
2  0.5576886085E-06  0.2231973117E-05  0.3166597189E-07  0.2274598479E-08  0.4467327605E-05  0.2417200000E+02
3  0.5535900993E-04  0.2216478090E-03  0.5127301981E-05  0.3542559620E-06  0.4434393598E-03  0.3900900000E+02
4  0.5719195567E-04  0.2004722733E-03  0.4944807942E-03  0.3294933473E-04  0.3497167583E-03  0.5396950000E+02
5  0.7520029069E-04  0.2119554357E-03  0.7577512684E-03  0.5273709831E-04  0.2987878219E-03  0.6899400000E+02
