title="tecplot geometry and solution file"
variables=x y z neg_vol_node
zone t="processor 160",, solutiontime= 0.5000000E+01, strandid=0, n=2415, e=10569, f=feblock, et=tetrahedron
  0.306506108136E+01  0.302100347106E+01  0.307962915158E+01  0.302040262579E+01  0.297044859979E+01  0.299804210169E+01  0.297608796561E+01
  0.298980508997E+01  0.306541190227E+01  0.300950406214E+01  0.299029532764E+01  0.311587580350E+01  0.310631305904E+01  0.311185855477E+01
  0.309105677728E+01  0.310376204914E+01  0.310034057183E+01  0.308379230109E+01  0.306224663467E+01  0.304485120588E+01  0.305467352066E+01
  0.299436440948E+01  0.291158958490E+01  0.297259194574E+01  0.292000179317E+01  0.294048431527E+01  0.297386455649E+01  0.300236884838E+01
  0.299729386902E+01  0.295912040414E+01  0.296456882444E+01  0.294170867952E+01  0.300978767771E+01  0.296342371367E+01  0.296927312705E+01
  0.308391921387E+01  0.308381498123E+01  0.305090735819E+01  0.297823164089E+01  0.300509706549E+01  0.300121487073E+01  0.296811205969E+01
  0.305420914519E+01  0.308965799674E+01  0.309879590389E+01  0.306169851023E+01  0.310236015038E+01  0.302809922543E+01  0.301357471842E+01
  0.304179997525E+01  0.304945061554E+01  0.301608168163E+01  0.306426499802E+01  0.302832419319E+01  0.306284110618E+01  0.293147491579E+01
  0.297509906558E+01  0.295053880762E+01  0.296714311544E+01  0.291243329258E+01  0.286858909149E+01  0.290485503877E+01  0.292388132505E+01
  0.287720739691E+01  0.284099290024E+01  0.289733425259E+01  0.292040928129E+01  0.288083160971E+01  0.291197307919E+01  0.290780179403E+01
  0.285353609841E+01  0.288323410072E+01  0.299982190806E+01  0.303099772883E+01  0.294069874650E+01  0.292964358098E+01  0.303201827470E+01
  0.292972267986E+01  0.293193787123E+01  0.307896780650E+01  0.308911987751E+01  0.306711457264E+01  0.299388553724E+01  0.294620124426E+01
  0.303400377363E+01  0.295742519443E+01  0.298707605744E+01  0.304066055198E+01  0.302375091058E+01  0.291571982471E+01  0.306747844634E+01
  0.310113481246E+01  0.309157405582E+01  0.305785926934E+01  0.300310336292E+01  0.307912395085E+01  0.297752085635E+01  0.299024633550E+01
  0.297856216533E+01  0.303999902811E+01  0.302588144024E+01  0.309098632041E+01  0.305633613925E+01  0.307222431596E+01  0.288985801375E+01
  0.295330264401E+01  0.289063721435E+01  0.286741364621E+01  0.294576527913E+01  0.289744529951E+01  0.289061710080E+01  0.286212835613E+01
  0.288443169577E+01  0.280938961889E+01  0.281671384743E+01  0.290174953460E+01  0.292116870311E+01  0.286566140677E+01  0.288311402756E+01
  0.283198615172E+01  0.279591783626E+01  0.282392372304E+01  0.282814857567E+01  0.277887020323E+01  0.285440851505E+01  0.287757572085E+01
  0.282167980870E+01  0.281885782442E+01  0.285129521396E+01  0.296763733045E+01  0.303915000241E+01  0.299333144721E+01  0.291101276744E+01
  0.286938565726E+01  0.291600705065E+01  0.290018552049E+01  0.294106184433E+01  0.307901956862E+01  0.301685845556E+01  0.296012917536E+01
  0.298533614412E+01  0.291884127103E+01  0.301041079722E+01  0.302530246105E+01  0.298284353338E+01  0.294985738002E+01  0.290181988227E+01
  0.293650699476E+01  0.298873531030E+01  0.295739828057E+01  0.297741629502E+01  0.304509925557E+01  0.289069525172E+01  0.301422886767E+01
  0.306734174635E+01  0.305026922132E+01  0.301354912399E+01  0.296155858867E+01  0.296829084046E+01  0.295095893025E+01  0.293755146799E+01
  0.297065702191E+01  0.298654528713E+01  0.308416146806E+01  0.303155756454E+01  0.303973006415E+01  0.298805594625E+01  0.296802300491E+01
  0.303414607065E+01  0.282130766823E+01  0.280960438927E+01  0.289002511820E+01  0.284871180995E+01  0.287790484889E+01  0.288661328766E+01
  0.283078441154E+01  0.279070111613E+01  0.279482968490E+01  0.281947801050E+01  0.290758519972E+01  0.282506870085E+01  0.282726541428E+01
  0.286939593291E+01  0.284653941823E+01  0.276834190311E+01  0.274295161322E+01  0.279438239837E+01  0.276267947820E+01  0.272964028939E+01
  0.273966890282E+01  0.273888407438E+01  0.268528845175E+01  0.274273042266E+01  0.274458729813E+01  0.285357690805E+01  0.281485617868E+01
  0.278344733926E+01  0.275953800721E+01  0.280768200595E+01  0.278224724294E+01  0.295660742631E+01  0.292239255714E+01  0.285418845153E+01
  0.277942971574E+01  0.288656775997E+01  0.287625206663E+01  0.292711049395E+01  0.299657140229E+01  0.295872462609E+01  0.291851456349E+01
  0.289096202725E+01  0.299945920939E+01  0.300784490958E+01  0.302063758019E+01  0.296270889363E+01  0.291357835838E+01  0.288057099523E+01
  0.294588335779E+01  0.290640053616E+01  0.296774006158E+01  0.293219617905E+01  0.299594248641E+01  0.295816164892E+01  0.297554433981E+01
  0.294265767881E+01  0.283101445582E+01  0.300105395643E+01  0.297625784925E+01  0.290763222996E+01  0.294990958600E+01  0.292556107101E+01
  0.293201863768E+01  0.299490331923E+01  0.299941820004E+01  0.301380444393E+01  0.294467028051E+01  0.296687769082E+01  0.295816474636E+01
  0.282631627704E+01  0.281150080193E+01  0.275630754261E+01  0.276853814405E+01  0.273952125063E+01  0.282249612367E+01  0.285772336986E+01
  0.284314321207E+01  0.284326913131E+01  0.280000613005E+01  0.288259065290E+01  0.277688025652E+01  0.274204592860E+01  0.271737647403E+01
  0.280074327514E+01  0.275151215535E+01  0.287416951426E+01  0.290127585496E+01  0.277978689119E+01  0.281583943263E+01  0.285786147193E+01
  0.287586991493E+01  0.283064346784E+01  0.273606211050E+01  0.268210352149E+01  0.270740373301E+01  0.273341086774E+01  0.270743073397E+01
  0.269286829388E+01  0.269805318010E+01  0.265396621498E+01  0.269981606608E+01  0.274428154234E+01  0.270856988596E+01  0.278345889809E+01
  0.277641899145E+01  0.287290213930E+01  0.284082794868E+01  0.280391305771E+01  0.292453369697E+01  0.291806741827E+01  0.289483526572E+01
  0.287533941510E+01  0.287896510874E+01  0.301319396833E+01  0.298903513040E+01  0.296426969010E+01  0.297361834991E+01  0.294265442034E+01
  0.297370381943E+01  0.292568324526E+01  0.287644785142E+01  0.289311429488E+01  0.285443459108E+01  0.283901997541E+01  0.291753757384E+01
  0.290880331618E+01  0.294763262303E+01  0.293772586157E+01  0.299541339254E+01  0.295768200199E+01  0.297679587010E+01  0.303304849881E+01
  0.301717943059E+01  0.298613575627E+01  0.299438206547E+01  0.291841938936E+01  0.285731789700E+01  0.292716882335E+01  0.286783616464E+01
  0.285620739685E+01  0.293965305077E+01  0.301524289738E+01  0.300186863205E+01  0.302196961419E+01  0.298335076355E+01  0.295011391406E+01
  0.276406686805E+01  0.273212877174E+01  0.272101354183E+01  0.272784986409E+01  0.268961202792E+01  0.271401763648E+01  0.281599179623E+01
  0.276275579533E+01  0.283335901584E+01  0.277868509786E+01  0.277689423830E+01  0.278992905989E+01  0.282544976429E+01  0.277655209493E+01
  0.278991753518E+01  0.282948072423E+01  0.281592881246E+01  0.263627493046E+01  0.266029758142E+01  0.277169545665E+01  0.274268707140E+01
  0.274511984824E+01  0.270881958573E+01  0.289113614988E+01  0.290630647873E+01  0.286000453593E+01  0.278315911054E+01  0.280423225511E+01
  0.283037471625E+01  0.287492432543E+01  0.282993774037E+01  0.268078600512E+01  0.273321602115E+01  0.268823423964E+01  0.264965460828E+01
  0.269317576397E+01  0.278269274456E+01  0.273286274785E+01  0.277998394866E+01  0.274976244366E+01  0.284707059373E+01  0.280444549337E+01
  0.279312318310E+01  0.280975914666E+01  0.278773913995E+01  0.275112446493E+01  0.273524317506E+01  0.291765082361E+01  0.291030969292E+01
  0.288174039443E+01  0.289215436232E+01  0.284975734245E+01  0.301179959579E+01  0.299728329139E+01  0.295751768464E+01  0.297674467515E+01
  0.297156610294E+01  0.293603399047E+01  0.293105946106E+01  0.294221887176E+01  0.290912967662E+01  0.289871082004E+01  0.285273976293E+01
  0.282012047360E+01  0.283709301815E+01  0.279002069756E+01  0.289267750557E+01  0.289776805193E+01  0.295730546845E+01  0.291718537988E+01
  0.295699172318E+01  0.292718270774E+01  0.293727147600E+01  0.299491320676E+01  0.299455821175E+01  0.285111456182E+01  0.282149597492E+01
  0.303669325835E+01  0.300969000593E+01  0.300542979204E+01  0.301646680467E+01  0.301513845248E+01  0.271000191157E+01  0.267539377929E+01
  0.271644661130E+01  0.266328247496E+01  0.270596265869E+01  0.274187707564E+01  0.264830336381E+01  0.276810284849E+01  0.275090032450E+01
  0.276693082117E+01  0.275971254255E+01  0.281111030549E+01  0.280422317856E+01  0.275310627869E+01  0.278342728982E+01  0.279870459594E+01
  0.256917992394E+01  0.261892161465E+01  0.263365723332E+01  0.265700857401E+01  0.268267808993E+01  0.269232667328E+01  0.271680397643E+01
  0.276630480695E+01  0.266478035907E+01  0.278245300453E+01  0.287476226153E+01  0.282956891305E+01  0.268031669260E+01  0.267991749112E+01
  0.262434599235E+01  0.265711213822E+01  0.273239408455E+01  0.273204285381E+01  0.275931239906E+01  0.272943071273E+01  0.269365644148E+01
  0.264794441420E+01  0.289684283614E+01  0.291684340102E+01  0.287452456453E+01  0.291666795428E+01  0.285642938128E+01  0.284694495958E+01
  0.288795152937E+01  0.284239245937E+01  0.299426403892E+01  0.301448052086E+01  0.300207330935E+01  0.299932409246E+01  0.296397579294E+01
  0.299708653475E+01  0.299401043086E+01  0.297536693447E+01  0.296733401023E+01  0.292404212969E+01  0.288420467553E+01  0.279443649911E+01
  0.280399548356E+01  0.282932357778E+01  0.282908729107E+01  0.278213913418E+01  0.288110173674E+01  0.292135676449E+01  0.287872475462E+01
  0.287422894184E+01  0.287686081671E+01  0.290005565307E+01  0.285260843333E+01  0.295665063064E+01  0.291613767508E+01  0.295615161964E+01
  0.296142079761E+01  0.295948020092E+01  0.295631137654E+01  0.291628306676E+01  0.291942124955E+01  0.295789460611E+01  0.291787782394E+01
  0.291644501197E+01  0.295644679204E+01  0.304110110507E+01  0.303434682194E+01  0.271357534217E+01  0.263050819738E+01  0.261580815884E+01
  0.262445319263E+01  0.268022195699E+01  0.274785657321E+01  0.269932910827E+01  0.269434024271E+01  0.270560373381E+01  0.258119869895E+01
  0.274366079330E+01  0.254803820556E+01  0.261136519595E+01  0.259440640592E+01  0.262756498490E+01  0.265630153073E+01  0.264875575670E+01
  0.264283687963E+01  0.267952657147E+01  0.268665325438E+01  0.269035749332E+01  0.268713439288E+01  0.274032349774E+01  0.273179371490E+01
  0.264731593251E+01  0.272458944190E+01  0.278810408439E+01  0.279090474062E+01  0.273773144272E+01  0.278185654921E+01  0.273556927301E+01
  0.262394393316E+01  0.257516751170E+01  0.267921326162E+01  0.267879851689E+01  0.262353025107E+01  0.283587331514E+01  0.283875805092E+01
  0.283357170241E+01  0.302923766859E+01  0.302883762541E+01  0.303231758030E+01  0.302902004538E+01  0.303068391944E+01  0.299362246585E+01
  0.299380607392E+01  0.299533511074E+01  0.278601340343E+01  0.278164741613E+01  0.283168114961E+01  0.278425660228E+01  0.278145761548E+01
  0.282895661548E+01  0.280655072780E+01  0.275836917663E+01  0.287399743857E+01  0.287537969687E+01  0.283027447186E+01  0.287386930539E+01
  0.287373129898E+01  0.282872153738E+01  0.282885023611E+01  0.263164648132E+01  0.261033172971E+01  0.254855360756E+01  0.258223783656E+01
  0.263807834683E+01  0.257898913451E+01  0.258348031340E+01  0.263424230827E+01  0.251941238486E+01  0.252667547768E+01  0.258912290835E+01
  0.255527950558E+01  0.262325218822E+01  0.267854671921E+01  0.268457497656E+01  0.263113289419E+01  0.262867588198E+01  0.273163606156E+01
  0.266123285100E+01  0.262673750220E+01  0.262300739867E+01  0.265252161399E+01  0.259543947837E+01  0.270660009847E+01  0.273141421902E+01
  0.273121875903E+01  0.270941318478E+01  0.270305917795E+01  0.273376162775E+01  0.267843641734E+01  0.268245122473E+01  0.268076867798E+01
  0.250426228666E+01  0.256516526551E+01  0.278270323887E+01  0.273243715400E+01  0.278130024491E+01  0.278118225439E+01  0.273094357210E+01
  0.273105884732E+01  0.256486674520E+01  0.262281201625E+01  0.256462239600E+01  0.250385375325E+01  0.250352582797E+01  0.252852534035E+01
  0.249069832290E+01  0.253693781858E+01  0.256996300894E+01  0.257532133604E+01  0.257238156521E+01  0.251708625246E+01  0.251366507974E+01
  0.252132161662E+01  0.245662462416E+01  0.256799519276E+01  0.256641497208E+01  0.262515202506E+01  0.267806715424E+01  0.262256528245E+01
  0.267815521395E+01  0.262264458891E+01  0.262390534886E+01  0.262263094915E+01  0.267941180439E+01  0.267831300566E+01  0.256397056657E+01
  0.256407557890E+01  0.256519554331E+01  0.256418939856E+01  0.256440409988E+01  0.250332074660E+01  0.243931251167E+01  0.243901718054E+01
  0.250858253062E+01  0.251084010986E+01  0.247889635421E+01  0.244578715139E+01  0.244845547156E+01  0.244245870232E+01  0.250269143341E+01
  0.250670939815E+01  0.250285591900E+01  0.250518696423E+01  0.250295685476E+01  0.250305477647E+01  0.250398012962E+01  0.243883562848E+01
  0.244185686455E+01  0.246681219575E+01  0.244048130466E+01  0.243835638910E+01  0.243867942990E+01  0.243847753766E+01  0.243935016481E+01
  0.240639664605E+01  0.243819882398E+01  0.386857868003E+01  0.389306922584E+01  0.393535972233E+01  0.397677973692E+01  0.380513105454E+01
  0.402061512246E+01  0.405723822687E+01  0.377501998514E+01  0.378709157860E+01  0.404029738021E+01  0.386231931398E+01  0.389881176721E+01
  0.401401357874E+01  0.412383364446E+01  0.387521438319E+01  0.362473267411E+01  0.366684892956E+01  0.370886249263E+01  0.421972338181E+01
  0.389297356186E+01  0.407565002478E+01  0.383930442750E+01  0.407884153141E+01  0.367715720506E+01  0.367330388075E+01  0.385585621527E+01
  0.370900044983E+01  0.377679877500E+01  0.385062032884E+01  0.398617239508E+01  0.400940054988E+01  0.421204525072E+01  0.404848251262E+01
  0.393626760966E+01  0.389881302995E+01  0.379338140022E+01  0.387037925137E+01  0.386256988129E+01  0.400538163259E+01  0.418477811047E+01
  0.380540755691E+01  0.390203578282E+01  0.435977268788E+01  0.359880180719E+01  0.368735100516E+01  0.369922838759E+01  0.433854749789E+01
  0.413930171259E+01  0.378804240359E+01  0.387286559268E+01  0.392606168486E+01  0.369372268591E+01  0.398160380908E+01  0.416984728162E+01
  0.346727783123E+01  0.359385279718E+01  0.368922002654E+01  0.349982316914E+01  0.371971189419E+01  0.364751344537E+01  0.375223800395E+01
  0.376711161069E+01  0.387446712662E+01  0.395067876559E+01  0.380768249333E+01  0.385501282260E+01  0.412473262012E+01  0.409775347411E+01
  0.435236909607E+01  0.404600372334E+01  0.388111875404E+01  0.392315180014E+01  0.383511687127E+01  0.375704844725E+01  0.383168321654E+01
  0.377256824580E+01  0.372139146908E+01  0.374608943275E+01  0.395234115812E+01  0.446372715957E+01  0.414644056805E+01  0.435929131577E+01
  0.380659906125E+01  0.362756660969E+01  0.371952088213E+01  0.364279742167E+01  0.381340873158E+01  0.365050666282E+01  0.384348623395E+01
  0.354464076930E+01  0.361438968967E+01  0.354830893697E+01  0.363078266171E+01  0.366320355799E+01  0.417370569058E+01  0.398695980108E+01
  0.408661082436E+01  0.435852971375E+01  0.423494493279E+01  0.394476685785E+01  0.334620286590E+01  0.355069828990E+01  0.343374646844E+01
  0.361657086491E+01  0.344348575891E+01  0.351935375774E+01  0.365658548798E+01  0.364204983628E+01  0.358059679427E+01  0.368741909931E+01
  0.361266307975E+01  0.370163286832E+01  0.368934765460E+01  0.386193864299E+01  0.370542163221E+01  0.403267806265E+01  0.409243876266E+01
  0.405663063563E+01  0.390010913919E+01  0.389870093508E+01  0.376945272489E+01  0.372620565868E+01  0.364474703504E+01  0.383953290402E+01
  0.383589696577E+01  0.425005672257E+01  0.418463938045E+01  0.409050145805E+01  0.398200514226E+01  0.399585127128E+01  0.400742202921E+01
  0.412950262305E+01  0.415437024037E+01  0.439851661004E+01  0.396295414198E+01  0.377872335053E+01  0.380314133584E+01  0.394953694395E+01
  0.384252959228E+01  0.374738278183E+01  0.369678850230E+01  0.356330246316E+01  0.357500472872E+01  0.364021594704E+01  0.358670317685E+01
  0.363094563763E+01  0.376235661449E+01  0.464669830202E+01  0.417860524245E+01  0.402977787649E+01  0.464507953064E+01  0.443824455516E+01
  0.424837246996E+01  0.439111221161E+01  0.377598610726E+01  0.352968066684E+01  0.357058606537E+01  0.368443533537E+01  0.359019105590E+01
  0.370672988367E+01  0.349536885756E+01  0.350198343909E+01  0.373771284072E+01  0.343616572451E+01  0.349898313206E+01  0.348478610149E+01
  0.349366877902E+01  0.419924086226E+01  0.393220317193E+01  0.408578214523E+01  0.446599189685E+01  0.455623300034E+01  0.431812510108E+01
  0.404461493238E+01  0.420680096996E+01  0.385252985598E+01  0.377576228865E+01  0.383380384592E+01  0.321959872813E+01  0.330516793867E+01
  0.332382652855E+01  0.336255047288E+01  0.350793967989E+01  0.340181716272E+01  0.335833656536E+01  0.337253218973E+01  0.327573794276E+01
  0.361233335714E+01  0.349186241842E+01  0.357707994250E+01  0.352184951763E+01  0.332079648705E+01  0.345109369816E+01  0.358517741567E+01
  0.359376003819E+01  0.360980112963E+01  0.353700456971E+01  0.360434599915E+01  0.362933496106E+01  0.372796750118E+01  0.385033373917E+01
  0.379757501738E+01  0.390101036063E+01  0.361701748681E+01  0.364798059552E+01  0.418004422379E+01  0.402469743747E+01  0.418500228814E+01
  0.406050760017E+01  0.404282242181E+01  0.382446146184E+01  0.392083526538E+01  0.393527059251E+01  0.382835451554E+01  0.384621334252E+01
  0.376627267872E+01  0.382873097249E+01  0.371745700449E+01  0.359375897094E+01  0.356826428795E+01  0.354981409642E+01  0.386172999626E+01
  0.422630258344E+01  0.427136441315E+01  0.408633862746E+01  0.398042781618E+01  0.400659860200E+01  0.410186911906E+01  0.408830761567E+01
  0.394935544629E+01  0.399147143786E+01  0.406996796007E+01  0.397380811642E+01  0.378907860808E+01  0.363678165018E+01  0.366580355157E+01
  0.366655016053E+01  0.373154980523E+01  0.371890081835E+01  0.389682898597E+01  0.369136102352E+01  0.368275396715E+01  0.372776104943E+01
  0.360142077807E+01  0.357577375069E+01  0.348639756873E+01  0.350541863772E+01  0.347785242544E+01  0.344843655546E+01  0.352330086589E+01
  0.343981787933E+01  0.355389801636E+01  0.357014589614E+01  0.369164417398E+01  0.354490298183E+01  0.348956986654E+01  0.342016018488E+01
  0.351568274047E+01  0.372587862980E+01  0.375109145367E+01  0.370931877982E+01  0.458696320613E+01  0.428830333887E+01  0.380333002423E+01
  0.381048199527E+01  0.393395505125E+01  0.461749591261E+01  0.442656057997E+01  0.441810300261E+01  0.418281653095E+01  0.437870074940E+01
  0.458544145121E+01  0.438132579707E+01  0.342887976401E+01  0.357397696497E+01  0.355831547821E+01  0.366719575908E+01  0.366062004388E+01
  0.343256466316E+01  0.330988449788E+01  0.331410553656E+01  0.346141647123E+01  0.337642174547E+01  0.345640338914E+01  0.340169511069E+01
  0.332537957063E+01  0.337616769506E+01  0.336319715423E+01  0.396006216035E+01  0.422508032360E+01  0.368031185262E+01  0.400464087288E+01
  0.391923134998E+01  0.408048491316E+01  0.407067117960E+01  0.427493435070E+01  0.397189455955E+01  0.398090582089E+01  0.376283925952E+01
  0.382499703899E+01  0.365662993085E+01  0.315408171091E+01  0.310286590517E+01  0.322789079291E+01  0.315983261124E+01  0.320798195194E+01
  0.333977247243E+01  0.326464249217E+01  0.352065732506E+01  0.334152956392E+01  0.325709716465E+01  0.348674322764E+01  0.336884186401E+01
  0.345245999646E+01  0.343991807055E+01  0.346610472189E+01  0.328070161148E+01  0.318000505472E+01  0.323690600181E+01  0.350913259017E+01
  0.352040057118E+01  0.352263424036E+01  0.354178642130E+01  0.352166308078E+01  0.378289772879E+01  0.358509033741E+01  0.363267492594E+01
  0.351088110708E+01  0.408729043975E+01  0.399953785282E+01  0.391297911573E+01  0.385178961507E+01  0.368151115505E+01  0.377138393587E+01
  0.368019495539E+01  0.379547491974E+01  0.384307094322E+01  0.380374495267E+01  0.400167359138E+01  0.379158095633E+01  0.367505493657E+01
  0.381674817935E+01  0.389646025195E+01  0.379583475033E+01  0.363763212531E+01  0.363070632360E+01  0.351574105346E+01  0.347926136417E+01
  0.344670069907E+01  0.345726097720E+01  0.425675268213E+01  0.410117352807E+01  0.413589417927E+01  0.417911489557E+01  0.421444444803E+01
  0.395949120522E+01  0.398725261217E+01  0.405847226378E+01  0.399116515479E+01  0.401046499002E+01  0.392823533417E+01  0.387194588529E+01
  0.394226919298E+01  0.370065190923E+01  0.362826080533E+01  0.354269398564E+01  0.361686456387E+01  0.353663506926E+01  0.367476201309E+01
  0.362977548921E+01  0.360494657228E+01  0.353769253403E+01  0.365285121135E+01  0.379595743912E+01  0.369197152919E+01  0.357472382929E+01
  0.388978340263E+01  0.389694887719E+01  0.374266066010E+01  0.359791562408E+01  0.358715238106E+01  0.351022346489E+01  0.357325555963E+01
  0.348002636367E+01  0.349585368477E+01  0.337693240403E+01  0.337776194658E+01  0.341923061167E+01  0.343366478893E+01  0.338234986943E+01
  0.337343719531E+01  0.334115549174E+01  0.334399004546E+01  0.349393866068E+01  0.352285920504E+01  0.354098705784E+01  0.343155091748E+01
  0.359813529750E+01  0.346054809953E+01  0.352796630189E+01  0.342396470378E+01  0.343746876425E+01  0.343633648041E+01  0.337076225763E+01
  0.345286158743E+01  0.345469191274E+01  0.335634404745E+01  0.330626338378E+01  0.331724778407E+01  0.346549746854E+01  0.346984068663E+01
  0.338904408996E+01  0.373289257437E+01  0.365853431798E+01  0.372807285530E+01  0.365619778148E+01  0.357459722100E+01  0.363437972940E+01
  0.446477756870E+01  0.427684726020E+01  0.370652223037E+01  0.380133296575E+01  0.361392310753E+01  0.375022079381E+01  0.391256646234E+01
  0.423542229628E+01  0.422558441170E+01  0.352227901071E+01  0.349612556725E+01  0.357429989843E+01  0.353841152742E+01  0.336690926380E+01
  0.331827764047E+01  0.320434581729E+01  0.321432274834E+01  0.318488145245E+01  0.325380209284E+01  0.324834151651E+01  0.315591027950E+01
  0.312435554020E+01  0.319653573227E+01  0.338970317682E+01  0.332000976943E+01  0.324023164266E+01  0.330722734154E+01  0.325290499080E+01
  0.327380233357E+01  0.326958323463E+01  0.328825185813E+01  0.396952459020E+01  0.397690006706E+01  0.408554920819E+01  0.416025583466E+01
  0.403556769397E+01  0.380871812614E+01  0.395864239306E+01  0.379256321240E+01  0.391179530818E+01  0.383058693851E+01  0.367837045538E+01
  0.353965605540E+01  0.368913687902E+01  0.351275660755E+01  0.341098789831E+01  0.309891665037E+01  0.315815935574E+01  0.306453472011E+01
  0.305088133379E+01  0.314896830017E+01  0.311932497380E+01  0.321877613186E+01  0.332186344616E+01  0.325478908999E+01  0.337265263219E+01
  0.337496459773E+01  0.341544706328E+01  0.340017216507E+01  0.318110951307E+01  0.314605483555E+01  0.320190433021E+01  0.315785632023E+01
  0.323026965596E+01  0.316920770683E+01  0.343019977303E+01  0.341740596467E+01  0.341941591744E+01  0.341359765848E+01  0.343374074155E+01
  0.340662975988E+01  0.353613810110E+01  0.348978458060E+01  0.347314255697E+01  0.379952360804E+01  0.370566044832E+01  0.368998348240E+01
  0.373464373598E+01  0.358074761861E+01  0.367497029600E+01  0.357045809337E+01  0.358307420051E+01  0.382139476786E+01  0.385627738470E+01
  0.376399674495E+01  0.381854698867E+01  0.379208178283E+01  0.366802626589E+01  0.371583305739E+01  0.379447073285E+01  0.373205332955E+01
  0.371901617700E+01  0.359097260026E+01  0.385159686463E+01  0.354613294324E+01  0.343232127510E+01  0.343551584946E+01  0.350332237246E+01
  0.339314957860E+01  0.339698409520E+01  0.403647411495E+01  0.388284237657E+01  0.409787120592E+01  0.394660161477E+01  0.388444829612E+01
  0.395434127513E+01  0.387104067369E+01  0.365989882090E+01  0.357001128639E+01  0.352504586376E+01  0.349550021462E+01  0.354610717691E+01
  0.358110391804E+01  0.349867074927E+01  0.358922138130E+01  0.348516129339E+01  0.349150633130E+01  0.363535970259E+01  0.371206677135E+01
  0.363506454040E+01  0.376949276631E+01  0.383555560609E+01  0.374799306330E+01  0.374116995934E+01  0.370092975378E+01  0.367416476671E+01
  0.351189781782E+01  0.333422734053E+01  0.334607619720E+01  0.335734554284E+01  0.336510569472E+01  0.349549987361E+01  0.343410297262E+01
  0.353836242293E+01  0.348898436340E+01  0.344944098131E+01  0.351920921116E+01  0.335749031234E+01  0.338626202542E+01  0.340429125891E+01
  0.340928415447E+01  0.345689075718E+01  0.335345449728E+01  0.324520154682E+01  0.327492047167E+01  0.324849407667E+01  0.333613862829E+01
  0.341617361717E+01  0.330304071987E+01  0.326958294008E+01  0.330284953538E+01  0.326333971106E+01  0.340387048456E+01  0.347824005795E+01
  0.344308995213E+01  0.332440786706E+01  0.335315083189E+01  0.332076459996E+01  0.328981566658E+01  0.354477133601E+01  0.362674610690E+01
  0.358254923231E+01  0.368036165759E+01  0.362993785335E+01  0.361198239636E+01  0.365202618061E+01  0.350711952546E+01  0.358703809849E+01
  0.362752977248E+01  0.355211547834E+01  0.419074347959E+01  0.363003314935E+01  0.355324839346E+01  0.344290653285E+01  0.347992036608E+01
  0.372823418138E+01  0.373417189521E+01  0.364624177037E+01  0.372927771387E+01  0.391518640145E+01  0.416014304981E+01  0.417989531102E+01
  0.401586613674E+01  0.343522774727E+01  0.349786973745E+01  0.319916088347E+01  0.329000496350E+01  0.323372494855E+01  0.308737030527E+01
  0.309871187559E+01  0.314930709362E+01  0.316829842932E+01  0.311153778260E+01  0.316863278674E+01  0.306006428396E+01  0.318404959697E+01
  0.300760779992E+01  0.312244508717E+01  0.312526967298E+01  0.319056993934E+01  0.331392895681E+01  0.325909649369E+01  0.319189578850E+01
  0.319620176094E+01  0.402252890618E+01  0.364096987631E+01  0.363164974719E+01  0.383858558835E+01  0.381234012895E+01  0.370086280022E+01
  0.345402087018E+01  0.337201065732E+01  0.360898025586E+01  0.327890004124E+01  0.307754887603E+01  0.298599481003E+01  0.299642238852E+01
  0.307821732099E+01  0.328261719993E+01  0.336385970509E+01  0.338699236312E+01  0.337040256916E+01  0.331913522781E+01  0.309339260028E+01
  0.314291281244E+01  0.304311341513E+01  0.308484026588E+01  0.350705188280E+01  0.372650407917E+01  0.362150917496E+01  0.356924900240E+01
  0.357714857431E+01  0.367334452722E+01  0.352716976816E+01  0.348528700260E+01  0.357870609864E+01  0.356695847694E+01  0.350641844207E+01
  0.347664482098E+01  0.376965629948E+01  0.370798984746E+01  0.371797871959E+01  0.375627971873E+01  0.373220938529E+01  0.367953210855E+01
  0.357654698758E+01  0.365630873452E+01  0.364610537256E+01  0.366417688437E+01  0.363255344554E+01  0.339840288424E+01  0.384932300599E+01
  0.378347305852E+01  0.398348886132E+01  0.389016516729E+01  0.380225223023E+01  0.376981786453E+01  0.390276579078E+01  0.375458207014E+01
  0.376093296875E+01  0.355737716836E+01  0.351433846239E+01  0.347080615433E+01  0.350821475024E+01  0.342948240618E+01  0.347900400403E+01
  0.348702370474E+01  0.353661609355E+01  0.343961539585E+01  0.342484474942E+01  0.339640377002E+01  0.352738967147E+01  0.341360159883E+01
  0.340340019659E+01  0.335247418067E+01  0.355932942989E+01  0.364546187514E+01  0.354905770673E+01  0.363816219013E+01  0.357888452434E+01
  0.367592462243E+01  0.357890190844E+01  0.339993327799E+01  0.341755512768E+01  0.346237256343E+01  0.342955529881E+01  0.338597242685E+01
  0.339488058081E+01  0.335982182868E+01  0.328732857603E+01  0.331881906418E+01  0.322278549797E+01  0.319768201068E+01  0.325958923010E+01
  0.320934170239E+01  0.338353983373E+01  0.336088155185E+01  0.341251171887E+01  0.334614880599E+01  0.327769724918E+01  0.326180616576E+01
  0.325394097273E+01  0.329672607992E+01  0.343731924965E+01  0.351088107295E+01  0.355963554818E+01  0.353715243251E+01  0.360487756674E+01
  0.363565745808E+01  0.353952317330E+01  0.350261506212E+01  0.360992540796E+01  0.355568777813E+01  0.342313362161E+01  0.345265119497E+01
  0.335830218149E+01  0.346364755590E+01  0.355897656454E+01  0.347179873020E+01  0.375229441147E+01  0.365846321607E+01  0.388488806847E+01
  0.342191240049E+01  0.311730000105E+01  0.303131781801E+01  0.305838974129E+01  0.307806844475E+01  0.298219213007E+01  0.320422809583E+01
  0.354999691165E+01  0.353702911898E+01  0.349210527555E+01  0.358385525285E+01  0.351197631388E+01  0.341322774136E+01  0.332353733676E+01
  0.337552193644E+01  0.330700441400E+01  0.325684591242E+01  0.331704437061E+01  0.335761148856E+01  0.319766455548E+01  0.325997020184E+01
  0.323464884624E+01  0.332310550661E+01  0.342278624995E+01  0.348434864197E+01  0.378003433846E+01  0.346517223360E+01  0.347923495111E+01
  0.340201325863E+01  0.335254352561E+01  0.336600549901E+01  0.339015080686E+01  0.341517466500E+01  0.335266865632E+01  0.340290869181E+01
  0.334767131552E+01  0.324372444225E+01  0.322505304396E+01  0.324858323032E+01  0.340494849110E+01  0.348959139279E+01  0.357697394512E+01
  0.349518361331E+01  0.341738370986E+01  0.347300538106E+01  0.356558922036E+01  0.337068553679E+01  0.317729129672E+01  0.318753527915E+01
  0.324679520839E+01  0.322002213595E+01  0.333916894221E+01  0.338204096915E+01  0.328855473349E+01  0.348150969552E+01  0.341427331612E+01
  0.326077871258E+01  0.325640978075E+01  0.237058780868E+01  0.306174218300E+01  0.253343853571E+01  0.258600692719E+01  0.302508574089E+01
  0.307371633271E+01  0.259627282043E+01  0.263819111421E+01  0.305018244853E+01  0.305820142442E+01  0.297713349658E+01  0.271231356930E+01
  0.267405314793E+01  0.308049090854E+01  0.297212899719E+01  0.280586118465E+01  0.275780552210E+01  0.297261423701E+01  0.290389015724E+01
  0.287522585045E+01  0.237159307558E+01  0.246093410194E+01  0.306787081447E+01  0.237761088226E+01  0.237262705960E+01  0.237397004059E+01
  0.237559091228E+01  0.306363992253E+01  0.306548981675E+01  0.303739617490E+01  0.244361999204E+01  0.307089635686E+01  0.307450811523E+01
  0.238012516473E+01  0.245178210022E+01  0.307920083701E+01  0.304560421624E+01  0.305119759195E+01  0.245579901237E+01  0.309103644455E+01