TITLE="fun3d_case_title"
VARIABLES="Iteration" "R_1" "R_2" "R_3" "R_4" "R_5" "C_L" "C_D" "C_M_x" "C_M_y" "C_M_z" "Wall Time" "C_x" "C_y" "C_z" "C_Lp" "C_Dp" "C_Lv" "C_Dv" "C_M_xp" "C_M_yp" "C_M_zp" "C_M_xv" "C_M_yv" "C_M_zv" "C_xp" "C_yp" "C_zp" "C_xv" "C_yv" "C_zv"
ZONE  I=5 F=POINT
1  0.1414278199E-04  0.7070313988E-05  0.7835697608E-16  0.1234127897E-06  0.3712480272E-04  0.8041312193E+00  0.8962511404E+00  0.1819373131E+01 -0.1504698647E+01 -0.2688329606E+01  0.1035764635E+02  0.8820806121E+00 -0.5374635917E+00  0.8196504854E+00  0.8041312193E+00  0.8962511404E+00  0.0000000000E+00  0.0000000000E+00  0.1819373131E+01 -0.1504698647E+01 -0.2688329606E+01  0.0000000000E+00  0.0000000000E+00  0.0000000000E+00  0.8820806121E+00 -0.5374635917E+00  0.8196504854E+00  0.0000000000E+00  0.0000000000E+00  0.0000000000E+00
2  0.8567741413E-05  0.3399454714E-05  0.1108605044E-05  0.5520027447E-05  0.2287961886E-04  0.1031297948E+01  0.1455421860E+01  0.2385234152E+01 -0.1899957780E+01 -0.4315764044E+01  0.1557529948E+02  0.1437201561E+01 -0.8640892948E+00  0.1056541491E+01  0.1031297948E+01  0.1455421860E+01  0.0000000000E+00  0.0000000000E+00  0.2385234152E+01 -0.1899957780E+01 -0.4315764044E+01  0.0000000000E+00  0.0000000000E+00  0.0000000000E+00  0.1437201561E+01 -0.8640892948E+00  0.1056541491E+01  0.0000000000E+00  0.0000000000E+00  0.0000000000E+00
3  0.5654212388E-05  0.2030285469E-05  0.1544390725E-05  0.5720201530E-05  0.1504908299E-04  0.9977541117E+00  0.1602475501E+01  0.2342343687E+01 -0.1818591540E+01 -0.4713832132E+01  0.2053727448E+02  0.1584818226E+01 -0.9465555962E+00  0.1025569203E+01  0.9977541117E+00  0.1602475501E+01  0.0000000000E+00  0.0000000000E+00  0.2342343687E+01 -0.1818591540E+01 -0.4713832132E+01  0.0000000000E+00  0.0000000000E+00  0.0000000000E+00  0.1584818226E+01 -0.9465555962E+00  0.1025569203E+01  0.0000000000E+00  0.0000000000E+00  0.0000000000E+00
4  0.4893974365E-05  0.2166370583E-05  0.1580820368E-05  0.4952192427E-05  0.1291769400E-04  0.9463511916E+00  0.1505149735E+01  0.2218913478E+01 -0.1721283975E+01 -0.4409671533E+01  0.2624199948E+02  0.1488404388E+01 -0.8899733972E+00  0.9724755427E+00  0.9463511916E+00  0.1505149735E+01  0.0000000000E+00  0.0000000000E+00  0.2218913478E+01 -0.1721283975E+01 -0.4409671533E+01  0.0000000000E+00  0.0000000000E+00  0.0000000000E+00  0.1488404388E+01 -0.8899733972E+00  0.9724755427E+00  0.0000000000E+00  0.0000000000E+00  0.0000000000E+00
5  0.4454673821E-05  0.2131576136E-05  0.1559352063E-05  0.4671953377E-05  0.1170692905E-04  0.9395129297E+00  0.1400445318E+01  0.2188369000E+01 -0.1717571537E+01 -0.4092044291E+01  0.3166029948E+02  0.1383835261E+01 -0.8309537046E+00  0.9638109782E+00  0.9395129297E+00  0.1400445318E+01  0.0000000000E+00  0.0000000000E+00  0.2188369000E+01 -0.1717571537E+01 -0.4092044291E+01  0.0000000000E+00  0.0000000000E+00  0.0000000000E+00  0.1383835261E+01 -0.8309537046E+00  0.9638109782E+00  0.0000000000E+00  0.0000000000E+00  0.0000000000E+00
