TITLE="fun3d_case_title"
VARIABLES="Iteration" "R_1" "R_2" "R_3" "R_4" "R_5" "C_L" "C_D" "C_M_x" "C_M_y" "C_M_z" "Wall Time" "C_x" "C_y" "C_z" "C_Lp" "C_Dp" "C_Lv" "C_Dv" "C_M_xp" "C_M_yp" "C_M_zp" "C_M_xv" "C_M_yv" "C_M_zv" "C_xp" "C_yp" "C_zp" "C_xv" "C_yv" "C_zv"
ZONE  I=5 F=POINT
1  0.1414278199E-04  0.7070313988E-05  0.7835697609E-16  0.1234127897E-06  0.3712480272E-04  0.8041312193E+00  0.8962511404E+00  0.1819373131E+01 -0.1504698647E+01 -0.2688329606E+01  0.9501617708E+01  0.8820806121E+00 -0.5374635917E+00  0.8196504854E+00  0.8041312193E+00  0.8962511404E+00  0.0000000000E+00  0.0000000000E+00  0.1819373131E+01 -0.1504698647E+01 -0.2688329606E+01  0.0000000000E+00  0.0000000000E+00  0.0000000000E+00  0.8820806121E+00 -0.5374635917E+00  0.8196504854E+00  0.0000000000E+00  0.0000000000E+00  0.0000000000E+00
2  0.8567741451E-05  0.3399454742E-05  0.1108605073E-05  0.5520027468E-05  0.2287961896E-04  0.1031298173E+01  0.1455421873E+01  0.2385235172E+01 -0.1899958556E+01 -0.4315764181E+01  0.1469410990E+02  0.1437201570E+01 -0.8640893301E+00  0.1056541716E+01  0.1031298173E+01  0.1455421873E+01  0.0000000000E+00  0.0000000000E+00  0.2385235172E+01 -0.1899958556E+01 -0.4315764181E+01  0.0000000000E+00  0.0000000000E+00  0.0000000000E+00  0.1437201570E+01 -0.8640893301E+00  0.1056541716E+01  0.0000000000E+00  0.0000000000E+00  0.0000000000E+00
3  0.5654212451E-05  0.2030285525E-05  0.1544390774E-05  0.5720201574E-05  0.1504908315E-04  0.9977546298E+00  0.1602475530E+01  0.2342346038E+01 -0.1818593331E+01 -0.4713832431E+01  0.2016438490E+02  0.1584818246E+01 -0.9465556744E+00  0.1025569721E+01  0.9977546298E+00  0.1602475530E+01  0.0000000000E+00  0.0000000000E+00  0.2342346038E+01 -0.1818593331E+01 -0.4713832431E+01  0.0000000000E+00  0.0000000000E+00  0.0000000000E+00  0.1584818246E+01 -0.9465556744E+00  0.1025569721E+01  0.0000000000E+00  0.0000000000E+00  0.0000000000E+00
4  0.4893973796E-05  0.2166370423E-05  0.1580821572E-05  0.4952191062E-05  0.1291769263E-04  0.9463558559E+00  0.1505152278E+01  0.2218976271E+01 -0.1721324615E+01 -0.4409687520E+01  0.2581220990E+02  0.1488406849E+01 -0.8899755027E+00  0.9724802506E+00  0.9463558559E+00  0.1505152278E+01  0.0000000000E+00  0.0000000000E+00  0.2218976271E+01 -0.1721324615E+01 -0.4409687520E+01  0.0000000000E+00  0.0000000000E+00  0.0000000000E+00  0.1488406849E+01 -0.8899755027E+00  0.9724802506E+00  0.0000000000E+00  0.0000000000E+00  0.0000000000E+00
5  0.4454674702E-05  0.2131576933E-05  0.1559353937E-05  0.4671953666E-05  0.1170693175E-04  0.9395291922E+00  0.1400447011E+01  0.2188459681E+01 -0.1717638689E+01 -0.4092058298E+01  0.3127198490E+02  0.1383836670E+01 -0.8309566005E+00  0.9638272678E+00  0.9395291922E+00  0.1400447011E+01  0.0000000000E+00  0.0000000000E+00  0.2188459681E+01 -0.1717638689E+01 -0.4092058298E+01  0.0000000000E+00  0.0000000000E+00  0.0000000000E+00  0.1383836670E+01 -0.8309566005E+00  0.9638272678E+00  0.0000000000E+00  0.0000000000E+00  0.0000000000E+00
