TITLE="fun3d_case_title"
VARIABLES="Iteration" "R_1" "R_2" "R_3" "R_4" "R_5" "C_L" "C_D" "C_M_x" "C_M_y" "C_M_z" "Wall Time" "C_x" "C_y" "C_z" "C_Lp" "C_Dp" "C_Lv" "C_Dv" "C_M_xp" "C_M_yp" "C_M_zp" "C_M_xv" "C_M_yv" "C_M_zv" "C_xp" "C_yp" "C_zp" "C_xv" "C_yv" "C_zv"
ZONE  I=5 F=POINT
1  0.1414278199E-04  0.7070313988E-05  0.7732447191E-16  0.1234127897E-06  0.3712480272E-04  0.8041305326E+00  0.8962511326E+00  0.1819371219E+01 -0.1504697259E+01 -0.2688329482E+01  0.3847071250E+02  0.8820806163E+00 -0.5374635300E+00  0.8196497987E+00  0.8041305326E+00  0.8962511326E+00  0.0000000000E+00  0.0000000000E+00  0.1819371219E+01 -0.1504697259E+01 -0.2688329482E+01  0.0000000000E+00  0.0000000000E+00  0.0000000000E+00  0.8820806163E+00 -0.5374635300E+00  0.8196497987E+00  0.0000000000E+00  0.0000000000E+00  0.0000000000E+00
2  0.8567742468E-05  0.3399455649E-05  0.1108605124E-05  0.5520026891E-05  0.2287962176E-04  0.1031295693E+01  0.1455421601E+01  0.2385227989E+01 -0.1899952775E+01 -0.4315763143E+01  0.8629270000E+02  0.1437201342E+01 -0.8640889589E+00  0.1056539231E+01  0.1031295693E+01  0.1455421601E+01  0.0000000000E+00  0.0000000000E+00  0.2385227989E+01 -0.1899952775E+01 -0.4315763143E+01  0.0000000000E+00  0.0000000000E+00  0.0000000000E+00  0.1437201342E+01 -0.8640889589E+00  0.1056539231E+01  0.0000000000E+00  0.0000000000E+00  0.0000000000E+00
3  0.5654216528E-05  0.2030288331E-05  0.1544390678E-05  0.5720197315E-05  0.1504909390E-04  0.9977527862E+00  0.1602473880E+01  0.2342337976E+01 -0.1818584601E+01 -0.4713828689E+01  0.1320396000E+03  0.1584816628E+01 -0.9465545370E+00  0.1025567849E+01  0.9977527862E+00  0.1602473880E+01  0.0000000000E+00  0.0000000000E+00  0.2342337976E+01 -0.1818584601E+01 -0.4713828689E+01  0.0000000000E+00  0.0000000000E+00  0.0000000000E+00  0.1584816628E+01 -0.9465545370E+00  0.1025567849E+01  0.0000000000E+00  0.0000000000E+00  0.0000000000E+00
4  0.4893985029E-05  0.2166373654E-05  0.1580819537E-05  0.4952180217E-05  0.1291772191E-04  0.9463631976E+00  0.1505143726E+01  0.2218936313E+01 -0.1721291363E+01 -0.4409661940E+01  0.1822484000E+03  0.1488398170E+01 -0.8899708199E+00  0.9724874420E+00  0.9463631976E+00  0.1505143726E+01  0.0000000000E+00  0.0000000000E+00  0.2218936313E+01 -0.1721291363E+01 -0.4409661940E+01  0.0000000000E+00  0.0000000000E+00  0.0000000000E+00  0.1488398170E+01 -0.8899708199E+00  0.9724874420E+00  0.0000000000E+00  0.0000000000E+00  0.0000000000E+00
5  0.4454694706E-05  0.2131580333E-05  0.1559349565E-05  0.4671935547E-05  0.1170698391E-04  0.9395647458E+00  0.1400430066E+01  0.2188478230E+01 -0.1717632243E+01 -0.4092023165E+01  0.2324838000E+03  0.1383819108E+01 -0.8309488099E+00  0.9638625202E+00  0.9395647458E+00  0.1400430066E+01  0.0000000000E+00  0.0000000000E+00  0.2188478230E+01 -0.1717632243E+01 -0.4092023165E+01  0.0000000000E+00  0.0000000000E+00  0.0000000000E+00  0.1383819108E+01 -0.8309488099E+00  0.9638625202E+00  0.0000000000E+00  0.0000000000E+00  0.0000000000E+00
