TITLE="fun3d_case_title"
VARIABLES="Iteration" "R_1" "R_2" "R_3" "R_4" "R_5" "C_L" "C_D" "C_M_x" "C_M_y" "C_M_z" "Wall Time" "C_x" "C_y" "C_z" "C_Lp" "C_Dp" "C_Lv" "C_Dv" "C_M_xp" "C_M_yp" "C_M_zp" "C_M_xv" "C_M_yv" "C_M_zv" "C_xp" "C_yp" "C_zp" "C_xv" "C_yv" "C_zv"
ZONE  I=5 F=POINT
1  0.2837573894E-02  0.1416206585E-02  0.1044252717E-03  0.7928571592E-03  0.7448450787E-02  0.2109448409E+01  0.3931306393E+01  0.2200381162E+02 -0.2111876052E+02  0.2587171764E+02  0.1336160417E+02  0.3893892685E+01  0.4403886402E+01  0.2177737887E+01  0.2109448409E+01  0.3931306393E+01  0.0000000000E+00  0.0000000000E+00  0.2200381162E+02 -0.2111876052E+02  0.2587171764E+02  0.0000000000E+00  0.0000000000E+00  0.0000000000E+00  0.3893892685E+01  0.4403886402E+01  0.2177737887E+01  0.0000000000E+00  0.0000000000E+00  0.0000000000E+00
2  0.2067521652E-02  0.1053793210E-02  0.2566142537E-03  0.1815434928E-02  0.5416756365E-02  0.3255570631E+01  0.6124914013E+01  0.2750392870E+02 -0.3195497235E+02  0.3287483027E+02  0.1906607292E+02  0.6067163617E+01  0.5307506717E+01  0.3361969280E+01  0.3255570631E+01  0.6124914013E+01  0.0000000000E+00  0.0000000000E+00  0.2750392870E+02 -0.3195497235E+02  0.3287483027E+02  0.0000000000E+00  0.0000000000E+00  0.0000000000E+00  0.6067163617E+01  0.5307506717E+01  0.3361969280E+01  0.0000000000E+00  0.0000000000E+00  0.0000000000E+00
3  0.1594384845E-02  0.8171514053E-03  0.3262179270E-03  0.1885859018E-02  0.4157534152E-02  0.3526039477E+01  0.6665032977E+01  0.2600097469E+02 -0.3419016355E+02  0.3132737570E+02  0.2465457292E+02  0.6602479986E+01  0.4867881701E+01  0.3641823308E+01  0.3526039477E+01  0.6665032977E+01  0.0000000000E+00  0.0000000000E+00  0.2600097469E+02 -0.3419016355E+02  0.3132737570E+02  0.0000000000E+00  0.0000000000E+00  0.0000000000E+00  0.6602479986E+01  0.4867881701E+01  0.3641823308E+01  0.0000000000E+00  0.0000000000E+00  0.0000000000E+00
4  0.1168741954E-02  0.6144798035E-03  0.3610636118E-03  0.1591686276E-02  0.3026222062E-02  0.3362384038E+01  0.6375107311E+01  0.2389388081E+02 -0.3251233047E+02  0.2898126712E+02  0.3044187292E+02  0.6315454659E+01  0.4395479422E+01  0.3473132895E+01  0.3362384038E+01  0.6375107311E+01  0.0000000000E+00  0.0000000000E+00  0.2389388081E+02 -0.3251233047E+02  0.2898126712E+02  0.0000000000E+00  0.0000000000E+00  0.0000000000E+00  0.6315454659E+01  0.4395479422E+01  0.3473132895E+01  0.0000000000E+00  0.0000000000E+00  0.0000000000E+00
5  0.1040296700E-02  0.5607020983E-03  0.3620000156E-03  0.1271774268E-02  0.2684490463E-02  0.3217642926E+01  0.6102692196E+01  0.2343962448E+02 -0.3111985526E+02  0.2850436272E+02  0.3626257292E+02  0.6045607114E+01  0.4316689570E+01  0.3323659528E+01  0.3217642926E+01  0.6102692196E+01  0.0000000000E+00  0.0000000000E+00  0.2343962448E+02 -0.3111985526E+02  0.2850436272E+02  0.0000000000E+00  0.0000000000E+00  0.0000000000E+00  0.6045607114E+01  0.4316689570E+01  0.3323659528E+01  0.0000000000E+00  0.0000000000E+00  0.0000000000E+00
