TITLE="fun3d_case_title"
VARIABLES="Iteration" "R_1" "R_2" "R_3" "R_4" "R_5" "C_L" "C_D" "C_M_x" "C_M_y" "C_M_z" "Wall Time" "C_x" "C_y" "C_z" "C_Lp" "C_Dp" "C_Lv" "C_Dv" "C_M_xp" "C_M_yp" "C_M_zp" "C_M_xv" "C_M_yv" "C_M_zv" "C_xp" "C_yp" "C_zp" "C_xv" "C_yv" "C_zv"
ZONE  I=5 F=POINT
1  0.2837499272E-02  0.1416326913E-02  0.1046684508E-03  0.7931286411E-03  0.7448338733E-02  0.2109449012E+01  0.3931307866E+01  0.2200382688E+02 -0.2111872297E+02  0.2587172968E+02  0.1076637813E+02  0.3893894147E+01  0.4403888306E+01  0.2177738516E+01  0.2109449012E+01  0.3931307866E+01  0.0000000000E+00  0.0000000000E+00  0.2200382688E+02 -0.2111872297E+02  0.2587172968E+02  0.0000000000E+00  0.0000000000E+00  0.0000000000E+00  0.3893894147E+01  0.4403888306E+01  0.2177738516E+01  0.0000000000E+00  0.0000000000E+00  0.0000000000E+00
2  0.2068545614E-02  0.1054086101E-02  0.2560083578E-03  0.1816756677E-02  0.5419437851E-02  0.3255578640E+01  0.6124936855E+01  0.2750395167E+02 -0.3195505630E+02  0.3287484068E+02  0.1655205781E+02  0.6067186315E+01  0.5307508853E+01  0.3361977687E+01  0.3255578640E+01  0.6124936855E+01  0.0000000000E+00  0.0000000000E+00  0.2750395167E+02 -0.3195505630E+02  0.3287484068E+02  0.0000000000E+00  0.0000000000E+00  0.0000000000E+00  0.6067186315E+01  0.5307508853E+01  0.3361977687E+01  0.0000000000E+00  0.0000000000E+00  0.0000000000E+00
3  0.1595031890E-02  0.8172882559E-03  0.3264041363E-03  0.1886963674E-02  0.4159170676E-02  0.3526042255E+01  0.6665036792E+01  0.2600100466E+02 -0.3419013738E+02  0.3132741615E+02  0.2224475781E+02  0.6602483752E+01  0.4867879837E+01  0.3641826153E+01  0.3526042255E+01  0.6665036792E+01  0.0000000000E+00  0.0000000000E+00  0.2600100466E+02 -0.3419013738E+02  0.3132741615E+02  0.0000000000E+00  0.0000000000E+00  0.0000000000E+00  0.6602483752E+01  0.4867879837E+01  0.3641826153E+01  0.0000000000E+00  0.0000000000E+00  0.0000000000E+00
4  0.1168628474E-02  0.6146008378E-03  0.3614395980E-03  0.1592227083E-02  0.3025957234E-02  0.3362389000E+01  0.6375108163E+01  0.2389383906E+02 -0.3251226649E+02  0.2898129519E+02  0.2818605781E+02  0.6315455424E+01  0.4395446379E+01  0.3473137871E+01  0.3362389000E+01  0.6375108163E+01  0.0000000000E+00  0.0000000000E+00  0.2389383906E+02 -0.3251226649E+02  0.2898129519E+02  0.0000000000E+00  0.0000000000E+00  0.0000000000E+00  0.6315455424E+01  0.4395446379E+01  0.3473137871E+01  0.0000000000E+00  0.0000000000E+00  0.0000000000E+00
5  0.1040551423E-02  0.5610540369E-03  0.3622383069E-03  0.1271847179E-02  0.2685249449E-02  0.3217657796E+01  0.6102711218E+01  0.2343931441E+02 -0.3111984651E+02  0.2850424506E+02  0.3403535781E+02  0.6045625874E+01  0.4316575727E+01  0.3323674728E+01  0.3217657796E+01  0.6102711218E+01  0.0000000000E+00  0.0000000000E+00  0.2343931441E+02 -0.3111984651E+02  0.2850424506E+02  0.0000000000E+00  0.0000000000E+00  0.0000000000E+00  0.6045625874E+01  0.4316575727E+01  0.3323674728E+01  0.0000000000E+00  0.0000000000E+00  0.0000000000E+00
