TITLE="fun3d_case_title"
VARIABLES="Iteration" "R_1" "R_2" "R_3" "R_4" "R_5" "C_L" "C_D" "C_M_x" "C_M_y" "C_M_z" "Wall Time" "C_x" "C_y" "C_z" "C_Lp" "C_Dp" "C_Lv" "C_Dv" "C_M_xp" "C_M_yp" "C_M_zp" "C_M_xv" "C_M_yv" "C_M_zv" "C_xp" "C_yp" "C_zp" "C_xv" "C_yv" "C_zv"
ZONE  I=5 F=POINT
1  0.2834518532E-02  0.1416335482E-02  0.1080901019E-03  0.8013739141E-03  0.7441121285E-02  0.2109452211E+01  0.3931317867E+01  0.2200382027E+02 -0.2111879072E+02  0.2587171800E+02  0.1835203854E+02  0.3893904091E+01  0.4403886547E+01  0.2177741888E+01  0.2109452211E+01  0.3931317867E+01  0.0000000000E+00  0.0000000000E+00  0.2200382027E+02 -0.2111879072E+02  0.2587171800E+02  0.0000000000E+00  0.0000000000E+00  0.0000000000E+00  0.3893904091E+01  0.4403886547E+01  0.2177741888E+01  0.0000000000E+00  0.0000000000E+00  0.0000000000E+00
2  0.2056235224E-02  0.1046141282E-02  0.2578842953E-03  0.1810605564E-02  0.5385971558E-02  0.3255599351E+01  0.6125003472E+01  0.2750390780E+02 -0.3195529921E+02  0.3287475952E+02  0.2396396979E+02  0.6067252561E+01  0.5307492029E+01  0.3361999557E+01  0.3255599351E+01  0.6125003472E+01  0.0000000000E+00  0.0000000000E+00  0.2750390780E+02 -0.3195529921E+02  0.3287475952E+02  0.0000000000E+00  0.0000000000E+00  0.0000000000E+00  0.6067252561E+01  0.5307492029E+01  0.3361999557E+01  0.0000000000E+00  0.0000000000E+00  0.0000000000E+00
3  0.1577671623E-02  0.8082436775E-03  0.3260637279E-03  0.1869830224E-02  0.4112159516E-02  0.3526073652E+01  0.6665146942E+01  0.2600091549E+02 -0.3419056073E+02  0.3132727771E+02  0.2945834479E+02  0.6602593337E+01  0.4867852835E+01  0.3641859468E+01  0.3526073652E+01  0.6665146942E+01  0.0000000000E+00  0.0000000000E+00  0.2600091549E+02 -0.3419056073E+02  0.3132727771E+02  0.0000000000E+00  0.0000000000E+00  0.0000000000E+00  0.6602593337E+01  0.4867852835E+01  0.3641859468E+01  0.0000000000E+00  0.0000000000E+00  0.0000000000E+00
4  0.1163389362E-02  0.6155175087E-03  0.3583693888E-03  0.1578526925E-02  0.3012608187E-02  0.3362434178E+01  0.6375249888E+01  0.2389374863E+02 -0.3251285425E+02  0.2898120236E+02  0.3528404479E+02  0.6315596338E+01  0.4395425147E+01  0.3473185516E+01  0.3362434178E+01  0.6375249888E+01  0.0000000000E+00  0.0000000000E+00  0.2389374863E+02 -0.3251285425E+02  0.2898120236E+02  0.0000000000E+00  0.0000000000E+00  0.0000000000E+00  0.6315596338E+01  0.4395425147E+01  0.3473185516E+01  0.0000000000E+00  0.0000000000E+00  0.0000000000E+00
5  0.1035622360E-02  0.5607523515E-03  0.3608573746E-03  0.1267007964E-02  0.2672766282E-02  0.3217704112E+01  0.6102845587E+01  0.2343917630E+02 -0.3112035978E+02  0.2850419727E+02  0.4095734479E+02  0.6045759414E+01  0.4316557442E+01  0.3323723382E+01  0.3217704112E+01  0.6102845587E+01  0.0000000000E+00  0.0000000000E+00  0.2343917630E+02 -0.3112035978E+02  0.2850419727E+02  0.0000000000E+00  0.0000000000E+00  0.0000000000E+00  0.6045759414E+01  0.4316557442E+01  0.3323723382E+01  0.0000000000E+00  0.0000000000E+00  0.0000000000E+00
