title="tecplot geometry and solution file"
variables = x y z neg_vol_node
zone t="time 0.0000000E+00 boundary 3", solutiontime=-0.1000000E+01, strandid=0, i=6409, j=12790, f=feblock
 -0.242443991261E-05 -0.102419046653E-02 -0.775811621149E-03  0.296724863264E-02  0.181312772995E-01  0.598659410417E-01  0.156483828840E+00
  0.364858685967E+00  0.800985767067E+00  0.124575695179E+01  0.169120092822E+01  0.213470042988E+01  0.257518896793E+01  0.301172857089E+01
  0.344324462333E+01  0.344205587604E+01  0.257672749690E+01  0.171100806633E+01  0.846205726357E+00  0.414384737268E+00  0.198041343758E+00
  0.902882529675E-01  0.381543060367E-01  0.148124817021E-01  0.563015691111E-02  0.226530362090E-02  0.447213595500E+01  0.446776864404E+01
  0.446340132378E+01  0.445903400352E+01  0.445466668326E+01  0.445029936300E+01  0.444593204274E+01  0.444156472248E+01  0.443719740222E+01
  0.443283008196E+01  0.442846276170E+01  0.442409544144E+01  0.441972812118E+01  0.441536080092E+01  0.441099348066E+01  0.440662616040E+01
  0.440225884014E+01  0.439789151988E+01  0.439352419962E+01  0.438915687936E+01  0.438478955910E+01  0.438042223884E+01  0.437605491858E+01
  0.437168759832E+01  0.436732027806E+01  0.436295295780E+01  0.435858563754E+01  0.435421831728E+01  0.434985099702E+01  0.434548367676E+01
  0.434111635650E+01  0.433674903624E+01  0.433238171598E+01  0.432801439572E+01  0.432364707546E+01  0.431927975520E+01  0.431491243494E+01
  0.431054511468E+01  0.430617779442E+01  0.430181047416E+01  0.429744315390E+01  0.429307583364E+01  0.428870851338E+01  0.428434119312E+01
  0.427997387286E+01  0.427560655260E+01  0.427123923234E+01  0.426687191208E+01  0.426250459182E+01  0.425813727156E+01  0.425376995130E+01
  0.424940263104E+01  0.424503531078E+01  0.424066799052E+01  0.423630067026E+01  0.423193335000E+01  0.422756602974E+01  0.422319870948E+01
  0.421883138922E+01  0.421446406896E+01  0.421009674870E+01  0.420572942844E+01  0.420136210818E+01  0.419699478792E+01  0.419262746766E+01
  0.418826014740E+01  0.418389282714E+01  0.417952550688E+01  0.417515818662E+01  0.417079086636E+01  0.416642354611E+01  0.416205622585E+01
  0.415768890559E+01  0.415332158533E+01  0.414895426507E+01  0.414458694481E+01  0.414021962455E+01  0.413585230429E+01  0.413148498403E+01
  0.412711766377E+01  0.412275034351E+01  0.411838302325E+01  0.411401570299E+01  0.410964838273E+01  0.410528106247E+01  0.410091374221E+01
  0.409654642195E+01  0.409217910169E+01  0.408781178143E+01  0.408344446117E+01  0.407907714091E+01  0.407470982065E+01  0.407034250039E+01
  0.406597518013E+01  0.406160785987E+01  0.405724053961E+01  0.405287321935E+01  0.404850589909E+01  0.404413857883E+01  0.403977125857E+01
  0.403540393831E+01  0.403103661805E+01  0.402666929779E+01  0.402230197753E+01  0.401793465727E+01  0.401356733701E+01  0.400920001675E+01
  0.400483269649E+01  0.400046537623E+01  0.399609805597E+01  0.399173073571E+01  0.398736341545E+01  0.398299609519E+01  0.397862877493E+01
  0.397426145467E+01  0.396989413441E+01  0.396552681415E+01  0.396115949389E+01  0.395679217363E+01  0.395242485337E+01  0.394805753311E+01
  0.394369021285E+01  0.393932289259E+01  0.393495557233E+01  0.393058825207E+01  0.392622093181E+01  0.392185361155E+01  0.391748629129E+01
  0.391311897103E+01  0.390875165077E+01  0.390438433051E+01  0.390001701025E+01  0.389564968999E+01  0.389128236973E+01  0.388691504947E+01
  0.388254772921E+01  0.387818040895E+01  0.387381308869E+01  0.386944576843E+01  0.386507844817E+01  0.386071112791E+01  0.385634380765E+01
  0.385197648739E+01  0.384760916713E+01  0.384324184687E+01  0.383887452661E+01  0.383450720635E+01  0.383013988609E+01  0.382577256584E+01
  0.382140524558E+01  0.381703792532E+01  0.381267060506E+01  0.380830328480E+01  0.380393596454E+01  0.379956864428E+01  0.379520132402E+01
  0.379083400376E+01  0.378646668350E+01  0.378209936324E+01  0.377773204298E+01  0.377336472272E+01  0.376899740246E+01  0.376463008220E+01
  0.376026276194E+01  0.375589544168E+01  0.375152812142E+01  0.374716080116E+01  0.374279348090E+01  0.373842616064E+01  0.373405884038E+01
  0.372969152012E+01  0.372532419986E+01  0.372095687960E+01  0.371658955934E+01  0.371222223908E+01  0.370785491882E+01  0.370348759856E+01
  0.369912027830E+01  0.369475295804E+01  0.369038563778E+01  0.368601831752E+01  0.368165099726E+01  0.367728367700E+01  0.367291635674E+01
  0.366854903648E+01  0.366418171622E+01  0.365981439596E+01  0.365544707570E+01  0.365107975544E+01  0.364671243518E+01  0.364234511492E+01
  0.363797779466E+01  0.363361047440E+01  0.362924315414E+01  0.362487583388E+01  0.362050851362E+01  0.361614119336E+01  0.361177387310E+01
  0.360740655284E+01  0.360303923258E+01  0.359867191232E+01  0.359430459206E+01  0.358993727180E+01  0.358556995154E+01  0.358120263128E+01
  0.357683531102E+01  0.357246799076E+01  0.356810067050E+01  0.356373335024E+01  0.355936602998E+01  0.355499870972E+01  0.355063138946E+01
  0.354626406920E+01  0.354189674894E+01  0.353752942868E+01  0.353316210842E+01  0.352879478816E+01  0.352442746790E+01  0.352006014764E+01
  0.351569282738E+01  0.351132550712E+01  0.350695818686E+01  0.350259086660E+01  0.349822354634E+01  0.349385622608E+01  0.348948890582E+01
  0.348512158556E+01  0.348075426531E+01  0.347638694505E+01  0.347201962479E+01  0.346765230453E+01  0.346328498427E+01  0.345891766401E+01
  0.345455034375E+01  0.345018302349E+01  0.344581570323E+01  0.344144838297E+01  0.343708106271E+01  0.343271374245E+01  0.342834642219E+01
  0.342397910193E+01  0.341961178167E+01  0.341524446141E+01  0.341087714115E+01  0.340650982089E+01  0.340214250063E+01  0.339777518037E+01
  0.339340786011E+01  0.338904053985E+01  0.338467321959E+01  0.338030589933E+01  0.337593857907E+01  0.337157125881E+01  0.336720393855E+01
  0.336283661829E+01  0.335846929803E+01  0.335410197777E+01  0.334973465751E+01  0.334536733725E+01  0.334100001699E+01  0.333663269673E+01
  0.333226537647E+01  0.332789805621E+01  0.332353073595E+01  0.331916341569E+01  0.331479609543E+01  0.331042877517E+01  0.330606145491E+01
  0.330169413465E+01  0.329732681439E+01  0.329295949413E+01  0.328859217387E+01  0.328422485361E+01  0.327985753335E+01  0.327549021309E+01
  0.327112289283E+01  0.326675557257E+01  0.326238825231E+01  0.325802093205E+01  0.325365361179E+01  0.324928629153E+01  0.324491897127E+01
  0.324055165101E+01  0.323618433075E+01  0.323181701049E+01  0.322744969023E+01  0.322308236997E+01  0.321871504971E+01  0.321434772945E+01
  0.320998040919E+01  0.320561308893E+01  0.320124576867E+01  0.319687844841E+01  0.319251112815E+01  0.318814380789E+01  0.318377648763E+01
  0.317940916737E+01  0.317504184711E+01  0.317067452685E+01  0.316630720659E+01  0.316193988633E+01  0.315757256607E+01  0.315320524581E+01
  0.314883792555E+01  0.314447060529E+01  0.314010328503E+01  0.313573596478E+01  0.313136864452E+01  0.312700132426E+01  0.312263400400E+01
  0.311826668374E+01  0.311389936348E+01  0.310953204322E+01  0.310516472296E+01  0.310079740270E+01  0.309643008244E+01  0.309206276218E+01
  0.308769544192E+01  0.308332812166E+01  0.307896080140E+01  0.307459348114E+01  0.307022616088E+01  0.306585884062E+01  0.306149152036E+01
  0.305712420010E+01  0.305275687984E+01  0.304838955958E+01  0.304402223932E+01  0.303965491906E+01  0.303528759880E+01  0.303092027854E+01
  0.302655295828E+01  0.302218563802E+01  0.301781831776E+01  0.301345099750E+01  0.300908367724E+01  0.300471635698E+01  0.300034903672E+01
  0.299598171646E+01  0.299161439620E+01  0.298724707594E+01  0.298287975568E+01  0.297851243542E+01  0.297414511516E+01  0.296977779490E+01
  0.296541047464E+01  0.296104315438E+01  0.295667583412E+01  0.295230851386E+01  0.294794119360E+01  0.294357387334E+01  0.293920655308E+01
  0.293483923282E+01  0.293047191256E+01  0.292610459230E+01  0.292173727204E+01  0.291736995178E+01  0.291300263152E+01  0.290863531126E+01
  0.290426799100E+01  0.289990067074E+01  0.289553335048E+01  0.289116603022E+01  0.288679870996E+01  0.288243138970E+01  0.287806406944E+01
  0.287369674918E+01  0.286932942892E+01  0.286496210866E+01  0.286059478840E+01  0.285622746814E+01  0.285186014788E+01  0.284749282762E+01
  0.284312550736E+01  0.283875818710E+01  0.283439086684E+01  0.283002354658E+01  0.282565622632E+01  0.282128890606E+01  0.281692158580E+01
  0.281255426554E+01  0.280818694528E+01  0.280381962502E+01  0.279945230476E+01  0.279508498450E+01  0.279071766425E+01  0.278635034399E+01
  0.278198302373E+01  0.277761570347E+01  0.277324838321E+01  0.276888106295E+01  0.276451374269E+01  0.276014642243E+01  0.275577910217E+01
  0.275141178191E+01  0.274704446165E+01  0.274267714139E+01  0.273830982113E+01  0.273394250087E+01  0.272957518061E+01  0.272520786035E+01
  0.272084054009E+01  0.271647321983E+01  0.271210589957E+01  0.270773857931E+01  0.270337125905E+01  0.269900393879E+01  0.269463661853E+01
  0.269026929827E+01  0.268590197801E+01  0.268153465775E+01  0.267716733749E+01  0.267280001723E+01  0.266843269697E+01  0.266406537671E+01
  0.265969805645E+01  0.265533073619E+01  0.265096341593E+01  0.264659609567E+01  0.264222877541E+01  0.263786145515E+01  0.263349413489E+01
  0.262912681463E+01  0.262475949437E+01  0.262039217411E+01  0.261602485385E+01  0.261165753359E+01  0.260729021333E+01  0.260292289307E+01
  0.259855557281E+01  0.259418825255E+01  0.258982093229E+01  0.258545361203E+01  0.258108629177E+01  0.257671897151E+01  0.257235165125E+01
  0.256798433099E+01  0.256361701073E+01  0.255924969047E+01  0.255488237021E+01  0.255051504995E+01  0.254614772969E+01  0.254178040943E+01
  0.253741308917E+01  0.253304576891E+01  0.252867844865E+01  0.252431112839E+01  0.251994380813E+01  0.251557648787E+01  0.251120916761E+01
  0.250684184735E+01  0.250247452709E+01  0.249810720683E+01  0.249373988657E+01  0.248937256631E+01  0.248500524605E+01  0.248063792579E+01
  0.247627060553E+01  0.247190328527E+01  0.246753596501E+01  0.246316864475E+01  0.245880132449E+01  0.245443400423E+01  0.245006668398E+01
  0.244569936372E+01  0.244133204346E+01  0.243696472320E+01  0.243259740294E+01  0.242823008268E+01  0.242386276242E+01  0.241949544216E+01
  0.241512812190E+01  0.241076080164E+01  0.240639348138E+01  0.240202616112E+01  0.239765884086E+01  0.239329152060E+01  0.238892420034E+01
  0.238455688008E+01  0.238018955982E+01  0.237582223956E+01  0.237145491930E+01  0.236708759904E+01  0.236272027878E+01  0.235835295852E+01
  0.235398563826E+01  0.234961831800E+01  0.234525099774E+01  0.234088367748E+01  0.233651635722E+01  0.233214903696E+01  0.232778171670E+01
  0.232341439644E+01  0.231904707618E+01  0.231467975592E+01  0.231031243566E+01  0.230594511540E+01  0.230157779514E+01  0.229721047488E+01
  0.229284315462E+01  0.228847583436E+01  0.228410851410E+01  0.227974119384E+01  0.227537387358E+01  0.227100655332E+01  0.226663923306E+01
  0.226227191280E+01  0.225790459254E+01  0.225353727228E+01  0.224916995202E+01  0.224480263176E+01  0.224043531150E+01  0.223606799124E+01
  0.223170067098E+01  0.222733335072E+01  0.222296603046E+01  0.221859871020E+01  0.221423138994E+01  0.220986406968E+01  0.220549674942E+01
  0.220112942916E+01  0.219676210890E+01  0.219239478864E+01  0.218802746838E+01  0.218366014812E+01  0.217929282786E+01  0.217492550760E+01
  0.217055818734E+01  0.216619086708E+01  0.216182354682E+01  0.215745622656E+01  0.215308890630E+01  0.214872158604E+01  0.214435426578E+01
  0.213998694552E+01  0.213561962526E+01  0.213125230500E+01  0.212688498474E+01  0.212251766448E+01  0.211815034422E+01  0.211378302396E+01
  0.210941570370E+01  0.210504838345E+01  0.210068106319E+01  0.209631374293E+01  0.209194642267E+01  0.208757910241E+01  0.208321178215E+01
  0.207884446189E+01  0.207447714163E+01  0.207010982137E+01  0.206574250111E+01  0.206137518085E+01  0.205700786059E+01  0.205264054033E+01
  0.204827322007E+01  0.204390589981E+01  0.203953857955E+01  0.203517125929E+01  0.203080393903E+01  0.202643661877E+01  0.202206929851E+01
  0.201770197825E+01  0.201333465799E+01  0.200896733773E+01  0.200460001747E+01  0.200023269721E+01  0.199586537695E+01  0.199149805669E+01
  0.198713073643E+01  0.198276341617E+01  0.197839609591E+01  0.197402877565E+01  0.196966145539E+01  0.196529413513E+01  0.196092681487E+01
  0.195655949461E+01  0.195219217435E+01  0.194782485409E+01  0.194345753383E+01  0.193909021357E+01  0.193472289331E+01  0.193035557305E+01
  0.192598825279E+01  0.192162093253E+01  0.191725361227E+01  0.191288629201E+01  0.190851897175E+01  0.190415165149E+01  0.189978433123E+01
  0.189541701097E+01  0.189104969071E+01  0.188668237045E+01  0.188231505019E+01  0.187794772993E+01  0.187358040967E+01  0.186921308941E+01
  0.186484576915E+01  0.186047844889E+01  0.185611112863E+01  0.185174380837E+01  0.184737648811E+01  0.184300916785E+01  0.183864184759E+01
  0.183427452733E+01  0.182990720707E+01  0.182553988681E+01  0.182117256655E+01  0.181680524629E+01  0.181243792603E+01  0.180807060577E+01
  0.180370328551E+01  0.179933596525E+01  0.179496864499E+01  0.179060132473E+01  0.178623400447E+01  0.178186668421E+01  0.177749936395E+01
  0.177313204369E+01  0.176876472343E+01  0.176439740317E+01  0.176003008292E+01  0.175566276266E+01  0.175129544240E+01  0.174692812214E+01
  0.174256080188E+01  0.173819348162E+01  0.173382616136E+01  0.172945884110E+01  0.172509152084E+01  0.172072420058E+01  0.171635688032E+01
  0.171198956006E+01  0.170762223980E+01  0.170325491954E+01  0.169888759928E+01  0.169452027902E+01  0.169015295876E+01  0.168578563850E+01
  0.168141831824E+01  0.167705099798E+01  0.167268367772E+01  0.166831635746E+01  0.166394903720E+01  0.165958171694E+01  0.165521439668E+01
  0.165084707642E+01  0.164647975616E+01  0.164211243590E+01  0.163774511564E+01  0.163337779538E+01  0.162901047512E+01  0.162464315486E+01
  0.162027583460E+01  0.161590851434E+01  0.161154119408E+01  0.160717387382E+01  0.160280655356E+01  0.159843923330E+01  0.159407191304E+01
  0.158970459278E+01  0.158533727252E+01  0.158096995226E+01  0.157660263200E+01  0.157223531174E+01  0.156786799148E+01  0.156350067122E+01
  0.155913335096E+01  0.155476603070E+01  0.155039871044E+01  0.154603139018E+01  0.154166406992E+01  0.153729674966E+01  0.153292942940E+01
  0.152856210914E+01  0.152419478888E+01  0.151982746862E+01  0.151546014836E+01  0.151109282810E+01  0.150672550784E+01  0.150235818758E+01
  0.149799086732E+01  0.149362354706E+01  0.148925622680E+01  0.148488890654E+01  0.148052158628E+01  0.147615426602E+01  0.147178694576E+01
  0.146741962550E+01  0.146305230524E+01  0.145868498498E+01  0.145431766472E+01  0.144995034446E+01  0.144558302420E+01  0.144121570394E+01
  0.143684838368E+01  0.143248106342E+01  0.142811374316E+01  0.142374642290E+01  0.141937910264E+01  0.141501178239E+01  0.141064446213E+01
  0.140627714187E+01  0.140190982161E+01  0.139754250135E+01  0.139317518109E+01  0.138880786083E+01  0.138444054057E+01  0.138007322031E+01
  0.137570590005E+01  0.137133857979E+01  0.136697125953E+01  0.136260393927E+01  0.135823661901E+01  0.135386929875E+01  0.134950197849E+01
  0.134513465823E+01  0.134076733797E+01  0.133640001771E+01  0.133203269745E+01  0.132766537719E+01  0.132329805693E+01  0.131893073667E+01
  0.131456341641E+01  0.131019609615E+01  0.130582877589E+01  0.130146145563E+01  0.129709413537E+01  0.129272681511E+01  0.128835949485E+01
  0.128399217459E+01  0.127962485433E+01  0.127525753407E+01  0.127089021381E+01  0.126652289355E+01  0.126215557329E+01  0.125778825303E+01
  0.125342093277E+01  0.124905361251E+01  0.124468629225E+01  0.124031897199E+01  0.123595165173E+01  0.123158433147E+01  0.122721701121E+01
  0.122284969095E+01  0.121848237069E+01  0.121411505043E+01  0.120974773017E+01  0.120538040991E+01  0.120101308965E+01  0.119664576939E+01
  0.119227844913E+01  0.118791112887E+01  0.118354380861E+01  0.117917648835E+01  0.117480916809E+01  0.117044184783E+01  0.116607452757E+01
  0.116170720731E+01  0.115733988705E+01  0.115297256679E+01  0.114860524653E+01  0.114423792627E+01  0.113987060601E+01  0.113550328575E+01
  0.113113596549E+01  0.112676864523E+01  0.112240132497E+01  0.111803400471E+01  0.111366668445E+01  0.110929936419E+01  0.110493204393E+01
  0.110056472367E+01  0.109619740341E+01  0.109183008315E+01  0.108746276289E+01  0.108309544263E+01  0.107872812237E+01  0.107436080212E+01
  0.106999348186E+01  0.106562616160E+01  0.106125884134E+01  0.105689152108E+01  0.105252420082E+01  0.104815688056E+01  0.104378956030E+01
  0.103942224004E+01  0.103505491978E+01  0.103068759952E+01  0.102632027926E+01  0.102195295900E+01  0.101758563874E+01  0.101321831848E+01
  0.100885099822E+01  0.100448367796E+01  0.100011635770E+01  0.995749037437E+00  0.991381717177E+00  0.987014396918E+00  0.982647076658E+00
  0.978279756398E+00  0.973912436138E+00  0.969545115878E+00  0.965177795618E+00  0.960810475358E+00  0.956443155098E+00  0.952075834839E+00
  0.947708514579E+00  0.943341194319E+00  0.938973874059E+00  0.934606553799E+00  0.930239233539E+00  0.925871913279E+00  0.921504593019E+00
  0.917137272760E+00  0.912769952500E+00  0.908402632240E+00  0.904035311980E+00  0.899667991720E+00  0.895300671460E+00  0.890933351200E+00
  0.886566030940E+00  0.882198710681E+00  0.877831390421E+00  0.873464070161E+00  0.869096749901E+00  0.864729429641E+00  0.860362109381E+00
  0.855994789121E+00  0.851627468862E+00  0.847260148602E+00  0.842892828342E+00  0.838525508082E+00  0.834158187822E+00  0.829790867562E+00
  0.825423547302E+00  0.821056227042E+00  0.816688906783E+00  0.812321586523E+00  0.807954266263E+00  0.803586946003E+00  0.799219625743E+00
  0.794852305483E+00  0.790484985223E+00  0.786117664963E+00  0.781750344704E+00  0.777383024444E+00  0.773015704184E+00  0.768648383924E+00
  0.764281063664E+00  0.759913743404E+00  0.755546423144E+00  0.751179102884E+00  0.746811782625E+00  0.742444462365E+00  0.738077142105E+00
  0.733709821845E+00  0.729342501585E+00  0.724975181325E+00  0.720607861065E+00  0.716240540805E+00  0.711873220546E+00  0.707505900286E+00
  0.703138580026E+00  0.698771259766E+00  0.694403939506E+00  0.690036619246E+00  0.685669298986E+00  0.681301978726E+00  0.676934658467E+00
  0.672567338207E+00  0.668200017947E+00  0.663832697687E+00  0.659465377427E+00  0.655098057167E+00  0.650730736907E+00  0.646363416647E+00
  0.641996096388E+00  0.637628776128E+00  0.633261455868E+00  0.628894135608E+00  0.624526815348E+00  0.620159495088E+00  0.615792174828E+00
  0.611424854568E+00  0.607057534309E+00  0.602690214049E+00  0.598322893789E+00  0.593955573529E+00  0.589588253269E+00  0.585220933009E+00
  0.580853612749E+00  0.576486292490E+00  0.572118972230E+00  0.567751651970E+00  0.563384331710E+00  0.559017011450E+00  0.554649691190E+00
  0.550282370930E+00  0.545915050670E+00  0.541547730411E+00  0.537180410151E+00  0.532813089891E+00  0.528445769631E+00  0.524078449371E+00
  0.519711129111E+00  0.515343808851E+00  0.510976488591E+00  0.506609168332E+00  0.502241848072E+00  0.497874527812E+00  0.493507207552E+00
  0.489139887292E+00  0.484772567032E+00  0.480405246772E+00  0.476037926512E+00  0.471670606253E+00  0.467303285993E+00  0.462935965733E+00
  0.458568645473E+00  0.454201325213E+00  0.449834004953E+00  0.445466684693E+00  0.441099364433E+00  0.436732044174E+00  0.432364723914E+00
  0.427997403654E+00  0.423630083394E+00  0.419262763134E+00  0.414895442874E+00  0.410528122614E+00  0.406160802354E+00  0.401793482095E+00
  0.397426161835E+00  0.393058841575E+00  0.384324201055E+00  0.375589560535E+00  0.366854920016E+00  0.358120279496E+00  0.349385638976E+00
  0.340650998456E+00  0.331916357937E+00  0.323181717417E+00  0.314447076897E+00  0.305712436377E+00  0.296977795858E+00  0.288243155338E+00
  0.279508514818E+00  0.270773874298E+00  0.262039233779E+00  0.253304593259E+00  0.244569952739E+00  0.235835312219E+00  0.227100671700E+00
  0.218366031180E+00  0.209631390660E+00  0.200896750140E+00  0.192162109621E+00  0.183427469101E+00  0.174692828581E+00  0.165958188061E+00
  0.157223547542E+00  0.148488907022E+00  0.139754266502E+00  0.131019625982E+00  0.122284985463E+00  0.113550344943E+00  0.104815704423E+00
  0.960810639035E-01  0.873464233837E-01  0.786117828640E-01  0.698771423442E-01  0.611425018245E-01  0.524078613048E-01  0.436732207850E-01
  0.349385802653E-01  0.262039397455E-01  0.174692992258E-01  0.873465870603E-02  0.361475344118E+01  0.378626075216E+01  0.395776806314E+01
  0.412927537412E+01  0.430078268510E+01  0.447228999608E+01  0.464379730706E+01  0.481530461804E+01  0.498681192902E+01  0.515831924000E+01
  0.532982655098E+01  0.550133386196E+01  0.567284117294E+01  0.584434848392E+01  0.601585579490E+01  0.618736310588E+01  0.576383619917E+01
  0.532854511177E+01  0.510748036713E+01  0.488471565898E+01  0.466353410725E+01  0.455630941050E+01  0.450577090416E+01  0.448337891601E+01
  0.447480810295E+01  0.447235808921E+01  0.447192874527E+01  0.982440867462E+00  0.218139260583E+01  0.178538680567E+01  0.716148456043E+00
  0.152105728800E+01  0.125380070187E+01  0.440421948615E+00  0.147296697889E+01  0.817515404250E+00  0.152879921914E+01  0.444012016408E+00
  0.116771238844E+01  0.121179059686E+01  0.350157868034E+01  0.370121702851E+01  0.389940890191E+01  0.214322110316E+01  0.409759781960E+01
  0.429578340979E+01  0.449396524229E+01  0.469214281121E+01  0.489031551785E+01  0.508848264921E+01  0.528664335023E+01  0.972841565676E+00
  0.240257364476E+01  0.333309616979E+01  0.376632248424E+01  0.419953049329E+01  0.463271469666E+01  0.145741899278E+01  0.106383225055E+01
  0.525866535854E+00  0.324277668768E+01  0.255479375538E+01  0.415977538298E+01  0.158231269404E+01  0.785742100851E+00  0.264236923172E+01
  0.370128585984E+01  0.466397300020E+01  0.176664714115E+01  0.573476711999E+00  0.271653344503E+01  0.324391001548E+01  0.371105975197E+01
  0.470619679494E+01  0.417672787435E+01  0.187072142477E+01  0.122468945790E+01  0.609709614552E+00  0.277964937224E+01  0.328427326532E+01
  0.376273350979E+01  0.237388847008E+01  0.423897043271E+01  0.153738730459E+01  0.199868716550E+01  0.283199923557E+01  0.332604265306E+01
  0.380831922534E+01  0.428679262062E+01  0.203934604745E+01  0.288636394756E+01  0.337814937717E+01  0.386402423832E+01  0.249299057421E+01
  0.434421172364E+01  0.250781886995E+01  0.311952670351E+01  0.360461323939E+01  0.207590745203E+01  0.407841358953E+01  0.438218502957E+01
  0.229638558988E+01  0.290457827809E+01  0.340138273933E+01  0.388511687253E+01  0.209701251837E+01  0.253295880810E+01  0.190899619227E+01
  0.258376186167E+01  0.239812356722E+01  0.446976440024E+01  0.588464264472E+01  0.195155241476E+00  0.312150265039E-01  0.331740000076E+01
  0.359478328719E-02  0.369054072547E-02  0.240956200492E+00  0.212107272250E+00  0.328329303621E+00  0.299384619044E+00  0.270439934467E+00
  0.404083658053E+00  0.760165937049E-01  0.110855370917E+00  0.324845026369E+01  0.326866631806E+01  0.328599436467E+01  0.375474797453E+01
  0.377495785627E+01  0.374031234472E+01  0.379228061204E+01  0.519534309931E+00  0.496307712149E+00  0.536954258267E+00  0.375113139663E+00
  0.133445435157E+00  0.189670769677E+00  0.320609942118E+01  0.322743128720E+01  0.325652019540E+01  0.369978096480E+01  0.371626359915E+01
  0.374922886786E+01  0.376958976912E+01  0.470420990412E+00  0.489832049977E+00  0.516036980389E+00  0.335921073834E+01  0.385951755797E+01
  0.324193718508E+01  0.373484761211E+01  0.483964505101E+00  0.166405114014E+00  0.373177666678E+01  0.507302003585E+00  0.214564578551E+00
  0.328907007164E+01  0.330649016956E+01  0.316862273140E+01  0.318895221397E+01  0.379743227528E+01  0.381194523904E+01  0.366895362069E+01
  0.368637871950E+01  0.456942423671E+00  0.442390085806E+00  0.324488463212E+01  0.524771957193E+00  0.321509835198E+01  0.371287315889E+01
  0.594473768964E+00  0.465838534634E+00  0.235906063996E+00  0.331229686887E+01  0.339465525173E+01  0.315053545213E+01  0.364093812677E+01
  0.550123394792E+00  0.421412386592E+00  0.387016355762E+00  0.672872430013E+00  0.369371790139E+01  0.333263869009E+01  0.313892091623E+01
  0.409771163931E+00  0.319540338524E+01  0.616225145837E+00  0.590067928993E+00  0.334134667045E+01  0.361992147689E+01  0.716178586737E+00
  0.346617158226E+01  0.312352426538E+01  0.573470002324E+00  0.596766001594E+00  0.337254396257E+01  0.339283474574E+01  0.341022684560E+01
  0.671119338999E+00  0.639153493663E+00  0.656589409301E+00  0.564734002598E+00  0.624566903907E+00  0.334922661348E+01  0.649803930954E+00
  0.336766269377E+01  0.339386133419E+01  0.352924136667E+01  0.639126727203E+00  0.661451789592E+00  0.785383660153E+00  0.343043012220E+01
  0.344364557060E+01  0.346104407141E+01  0.337930653396E+01  0.356078186269E+01  0.692006846704E+00  0.735092518087E+00  0.703126941582E+00
  0.717656749084E+00  0.340896607385E+01  0.343446554913E+01  0.826380138248E+00  0.348661614010E+01  0.350402020523E+01  0.673385003859E+00
  0.697364456906E+00  0.341990987104E+01  0.358903828835E+01  0.792944630854E+00  0.769693349419E+00  0.749348478164E+00  0.686687261924E+00
  0.717748192782E+00  0.352813693488E+01  0.354844239305E+01  0.356294629174E+01  0.728620765890E+00  0.769388832287E+00  0.747063462593E+00
  0.451500735917E+01  0.439718502408E+01  0.443053919942E+01  0.425721200356E+01  0.395907469571E+01  0.327606953087E+01  0.378542602262E+01
  0.375636339179E+01  0.373462503796E+01  0.370778881417E+01  0.362427330156E+01  0.344156716834E+01  0.337850914983E+01  0.335450023022E+01
  0.332551533691E+01  0.331656439729E+01  0.335335509979E+01  0.298516457777E+01  0.326587697567E+01  0.323249821907E+01  0.321205919521E+01
  0.317626866043E+01  0.315060171044E+01  0.321336652751E+01  0.319104532580E+01  0.316646873087E+01  0.316396747042E+01  0.315750704275E+01
  0.248725144025E+01  0.318116115420E+01  0.308665803247E+01  0.261109108809E+01  0.225318162822E+01  0.211228979581E+01  0.227648134446E+01
  0.196125445959E+01  0.183997955230E+01  0.178362758647E+01  0.167083486449E+01  0.113045881060E+01  0.143635453757E+01  0.123521665739E+01
  0.736153845697E+00  0.793785750084E+00  0.753298783006E+00  0.775782127797E+00  0.701920488635E+00  0.623825581832E+00  0.600989369488E+00
  0.503530332456E+00  0.483486249337E+00  0.478723759807E+00  0.472996044600E+00  0.440767712543E+00  0.252035652249E+00  0.196402877460E+00
  0.168033781996E+00  0.415809642359E-01  0.651576202309E+00  0.342126247340E+01  0.535858911299E+00  0.130055286071E+01  0.347627420823E+01
  0.742137985952E+00  0.432035299218E+00  0.233806255601E+01  0.427894352371E+00  0.377687997149E+01  0.552670008724E+00  0.367264831471E+01
  0.243596987645E+01  0.300949734983E+01  0.217992206128E+01  0.451125222643E+01  0.211662806024E+00  0.353997113745E+00  0.285049257189E+00
  0.237861264880E+00  0.124497840966E+00  0.496843763180E+00  0.539176225589E+00  0.365328352634E+00  0.407175410193E+00  0.150260917092E+00
  0.169817884193E+00  0.326088176452E+01  0.372217902258E+01  0.376894065970E+01  0.518078457300E+00  0.368766208572E+01  0.373959370123E+01
  0.332427525982E+01  0.319813131037E+01  0.382142929678E+01  0.365642763188E+01  0.369519548481E+01  0.461245958414E+00  0.458750058917E+00
  0.324488967335E+01  0.325120555585E+01  0.523897707238E+00  0.429977932566E+00  0.381651159220E+00  0.334479444131E+01  0.313334878665E+01
  0.398076910975E+00  0.577212111214E+00  0.311996008716E+01  0.574332617039E+00  0.599510726749E+00  0.340877087698E+01  0.640207912075E+00
  0.668069178356E+00  0.567084974917E+00  0.334031113390E+01  0.336849372508E+01  0.339304766962E+01  0.638316657421E+00  0.659014483587E+00
  0.343382232020E+01  0.343710082798E+01  0.346628002808E+01  0.713918966524E+00  0.743477429665E+00  0.698803732920E+00  0.724556922340E+00
  0.732856032695E+00  0.340957704781E+01  0.350125558295E+01  0.352498706960E+01  0.667009349361E+00  0.341818511290E+01  0.901970655964E+00
  0.763650826651E+00  0.779297480817E+00  0.734535703900E+00  0.686098428173E+00  0.714973860511E+00  0.353875207462E+01  0.355347967660E+01
  0.358256466614E+01  0.356502622529E+01  0.725337604595E+00  0.453243589357E+01  0.352503545908E+01  0.420492019341E+01  0.403699011632E+01
  0.328638685892E+01  0.370276587925E+01  0.376970523112E+01  0.373883475561E+01  0.369051735048E+01  0.371926148427E+01  0.366821000700E+01
  0.362054826709E+01  0.325788393923E+01  0.359418285954E+01  0.337140410436E+01  0.345568784480E+01  0.343598965867E+01  0.329850465478E+01
  0.332886843905E+01  0.311920688301E+01  0.313727223331E+01  0.321588377676E+01  0.311600220004E+01  0.267482194450E+01  0.248071887877E+01
  0.241166737305E+01  0.229766729878E+01  0.223510219912E+01  0.212702951778E+01  0.204586063411E+01  0.191218356966E+01  0.173106968984E+01
  0.179857158379E+01  0.140021134403E+01  0.129470926090E+01  0.139005181233E+01  0.108943144386E+01  0.820302931939E+00  0.779518516670E+00
  0.960938376910E+00  0.518684838675E+00  0.632731040164E+00  0.592266577193E+00  0.496006264887E+00  0.509948408477E+00  0.465030921175E+00
  0.429043215166E+00  0.411132272774E+00  0.363433269012E+00  0.350299566354E+00  0.142327392657E+00  0.110748500950E+00  0.427153368965E-01
  0.762506982278E-01  0.341179488879E+01  0.342479345790E+01  0.289843558006E+00  0.220032123780E+00  0.330964048894E+00  0.561084077150E+00
  0.316786023300E+01  0.436018958634E+00  0.378610232165E+01  0.348177555997E+01  0.456898662975E+01  0.393978557089E+00  0.578486698109E-01
  0.323081946843E+01  0.327194898732E+01  0.376151753203E+01  0.445630001118E+00  0.198034788030E+00  0.184149701971E+00  0.379343509280E+01
  0.319430746143E+01  0.315408315357E+01  0.378079725523E+01  0.364716120209E+01  0.331257551322E+01  0.312119708063E+01  0.311266682917E+01
  0.605462313408E+00  0.568016771334E+00  0.338450780331E+01  0.339869507372E+01  0.350292079326E+01  0.354247658746E+01  0.424481120545E+01