TITLE="Adjoint Convergence History"
VARIABLES="Iteration" "R_1" "R_2" "R_3" "R_4" "R_5" "Simulation_Time"
ZONE I=5 F=POINT
1  0.0000000000E+00  0.0000000000E+00  0.0000000000E+00  0.0000000000E+00  0.0000000000E+00  0.2077880000E+02
2  0.1570238626E-10  0.6279050753E-10  0.6826849712E-11  0.9475176613E-12  0.1270829286E-09  0.7417230000E+02
3  0.1554602296E-08  0.6216886060E-08  0.6829545770E-09  0.9768957540E-10  0.1258163334E-07  0.1300757000E+03
4  0.1527717558E-08  0.4404490227E-08  0.1207349555E-07  0.2835507414E-08  0.4053098460E-08  0.1869727000E+03
5  0.5492340004E-08  0.1411045506E-07  0.1758644275E-07  0.9230725342E-08  0.4133886275E-08  0.2438878000E+03
