TITLE="Adjoint Convergence History"
VARIABLES="Iteration" "R_1" "R_2" "R_3" "R_4" "R_5" "Simulation_Time"
ZONE I=5 F=POINT
1  0.0000000000E+00  0.0000000000E+00  0.0000000000E+00  0.0000000000E+00  0.0000000000E+00  0.2030090000E+02
2  0.1570187737E-10  0.6278847365E-10  0.6826672749E-11  0.9474878623E-12  0.1270788343E-09  0.7373730000E+02
3  0.1554537542E-08  0.6216638223E-08  0.6830172938E-09  0.9759758249E-10  0.1258112179E-07  0.1300978000E+03
4  0.1522246927E-08  0.4375019775E-08  0.1216613745E-07  0.2808161817E-08  0.4105851933E-08  0.1869793000E+03
5  0.5502487427E-08  0.1413183965E-07  0.1763029754E-07  0.9246551455E-08  0.4139241520E-08  0.2439391000E+03
