TITLE="Adjoint Convergence History"
VARIABLES="Iteration" "R_1" "R_2" "R_3" "R_4" "R_5" "Simulation_Time"
ZONE I=5 F=POINT
1  0.0000000000E+00  0.0000000000E+00  0.0000000000E+00  0.0000000000E+00  0.0000000000E+00  0.1945720000E+02
2  0.9181594968E-11  0.3666487345E-10  0.3924484769E-12  0.2334594063E-11  0.7351971025E-10  0.6886310000E+02
3  0.7875475816E-09  0.3144972042E-08  0.3852373171E-10  0.2106748589E-09  0.6306085505E-08  0.1203817000E+03
4  0.9082149379E-09  0.2595660918E-08  0.1684158035E-08  0.5971437945E-08  0.1995014329E-08  0.1727638000E+03
5  0.2567969813E-08  0.6608945374E-08  0.4446407098E-08  0.7960278955E-08  0.1830916673E-08  0.2254909000E+03
