TITLE="Adjoint Convergence History"
VARIABLES="Iteration" "R_1" "R_2" "R_3" "R_4" "R_5" "Simulation_Time"
ZONE I=5 F=POINT
1  0.0000000000E+00  0.0000000000E+00  0.0000000000E+00  0.0000000000E+00  0.0000000000E+00  0.1873000000E+02
2  0.9181624163E-11  0.3666499005E-10  0.3924499015E-12  0.2334601731E-11  0.7351994416E-10  0.6889890000E+02
3  0.7875653635E-09  0.3145043057E-08  0.3852439900E-10  0.2106792226E-09  0.6306227918E-08  0.1212138000E+03
4  0.9082350053E-09  0.2595716762E-08  0.1684195567E-08  0.5971573014E-08  0.1995048449E-08  0.1761187000E+03
5  0.2568436746E-08  0.6609763412E-08  0.4446872685E-08  0.7960128017E-08  0.1830802096E-08  0.2297835000E+03
