TITLE="Adjoint Convergence History"
VARIABLES="Iteration" "R_1" "R_2" "R_3" "R_4" "R_5" "Simulation_Time"
ZONE I=5 F=POINT
1  0.0000000000E+00  0.0000000000E+00  0.0000000000E+00  0.0000000000E+00  0.0000000000E+00  0.2129890000E+02
2  0.9895196382E-11  0.3951469158E-10  0.4284067113E-12  0.2524018076E-11  0.7923694608E-10  0.7273970000E+02
3  0.9795754146E-09  0.3911792615E-08  0.4729401273E-10  0.2589349423E-09  0.7843794345E-08  0.1265831000E+03
4  0.1116315954E-08  0.3191487408E-08  0.2074828390E-08  0.7344630061E-08  0.2446903743E-08  0.1823190000E+03
5  0.3107216665E-08  0.7995368053E-08  0.5379391595E-08  0.9633182726E-08  0.2211796080E-08  0.2370736000E+03
