TITLE="Adjoint Convergence History"
VARIABLES="Iteration" "R_1" "R_2" "R_3" "R_4" "R_5" "Simulation_Time"
ZONE I=5 F=POINT
1  0.0000000000E+00  0.0000000000E+00  0.0000000000E+00  0.0000000000E+00  0.0000000000E+00  0.2129200000E+02
2  0.1938776384E-11  0.7753209221E-11  0.7651325431E-12  0.1210647289E-12  0.1566043316E-10  0.7671390000E+02
3  0.1920028234E-09  0.7678508209E-09  0.7676733871E-10  0.1247830841E-10  0.1550866026E-08  0.1342366000E+03
4  0.1850965453E-09  0.5312800614E-09  0.1437227573E-08  0.3519255680E-09  0.4832618164E-09  0.1926551000E+03
5  0.6315214095E-09  0.1613842545E-08  0.2017771663E-08  0.1080072500E-08  0.4705987319E-09  0.2524897000E+03
