TITLE="Adjoint Convergence History"
VARIABLES="Iteration" "R_1" "R_2" "R_3" "R_4" "R_5" "Simulation_Time"
ZONE I=5 F=POINT
1  0.0000000000E+00  0.0000000000E+00  0.0000000000E+00  0.0000000000E+00  0.0000000000E+00  0.3707240000E+02
2  0.1570187737E-10  0.6278847365E-10  0.6826672749E-11  0.9474878623E-12  0.1270788343E-09  0.1206173000E+03
3  0.1554574013E-08  0.6216784064E-08  0.6830328750E-09  0.9759969201E-10  0.1258141696E-07  0.2067035000E+03
4  0.1522281126E-08  0.4375113417E-08  0.1216642130E-07  0.2808226944E-08  0.4105918637E-08  0.2941903000E+03
5  0.5502605374E-08  0.1413213425E-07  0.1763057100E-07  0.9246747875E-08  0.4139333328E-08  0.3816946000E+03
