title="tecplot geometry and solution file"
variables = x y z p mach temperature lambda1 lambda2 lambda3 lambda4 lambda5
zone t="boundary 1", solutiontime= 0.5000000E+01, strandid=0, i=209, j=384, f=feblock
 -0.516397779494E+02 -0.516397779494E+02 -0.516397779494E+02 -0.516397779494E+02 -0.516397779494E+02 -0.516397779494E+02 -0.516397779494E+02
 -0.516397779494E+02 -0.516397779494E+02 -0.516397779494E+02 -0.516397779494E+02 -0.516397779494E+02 -0.516397776129E+02 -0.516397777476E+02
 -0.516397781741E+02 -0.516397781527E+02 -0.516397778764E+02 -0.516397763372E+02 -0.516397731068E+02 -0.516397726635E+02 -0.516397734821E+02
 -0.516397779494E+02 -0.516397779494E+02 -0.516397779494E+02 -0.516397779494E+02 -0.516397779494E+02 -0.516397779494E+02 -0.516397779494E+02
 -0.516397779494E+02 -0.516397779494E+02 -0.516397779494E+02 -0.516397779494E+02 -0.516397779494E+02 -0.516397779494E+02 -0.516397779494E+02
 -0.516397779494E+02 -0.516397779494E+02 -0.516397779494E+02 -0.516397779494E+02 -0.516397779494E+02 -0.516397779494E+02 -0.516397779494E+02
 -0.516397779494E+02 -0.516397779494E+02 -0.516397779494E+02 -0.387298317114E+02 -0.258198892009E+02 -0.129099443388E+02 -0.486781281950E-07
  0.129099457034E+02  0.258198899349E+02  0.387298351103E+02  0.516397835795E+02  0.516397779494E+02  0.516397779494E+02  0.516397779494E+02
  0.516397779494E+02  0.387298334621E+02  0.258198889747E+02  0.129099444874E+02  0.000000000000E+00 -0.129099444874E+02 -0.258198889747E+02
 -0.387298334621E+02 -0.387298334621E+02 -0.387298334621E+02 -0.387298334621E+02 -0.258198889747E+02 -0.258198889747E+02 -0.258198889747E+02
 -0.129099444874E+02 -0.129099444874E+02 -0.129099444874E+02 -0.142108547152E-13 -0.710542735760E-14  0.000000000000E+00  0.129099444874E+02
  0.129099444874E+02  0.129099444874E+02  0.258198889747E+02  0.258198889747E+02  0.258198889747E+02  0.387298334621E+02  0.387298334621E+02
  0.387298334621E+02  0.516397811504E+02  0.516397825064E+02  0.516397817821E+02  0.516397771018E+02  0.516397344084E+02  0.516397441188E+02
  0.516397940645E+02  0.516398306817E+02  0.387298956508E+02  0.258199290857E+02  0.129099658386E+02  0.470214749737E-05 -0.129099400403E+02
 -0.258198857442E+02 -0.387298320521E+02  0.516397779494E+02  0.387298334621E+02  0.258198889747E+02  0.129099444874E+02  0.000000000000E+00
 -0.129099444874E+02 -0.258198889747E+02 -0.387298334621E+02  0.516397779494E+02  0.516397779494E+02  0.516397779494E+02  0.387298334621E+02
  0.258198889747E+02  0.129099444874E+02 -0.142108547152E-13 -0.129099444874E+02 -0.258198889747E+02 -0.387298334621E+02  0.387298334621E+02
  0.258198889747E+02  0.129099444874E+02  0.710542735760E-14 -0.129099444874E+02 -0.258198889747E+02 -0.387298334621E+02  0.387298334621E+02
  0.258198889747E+02  0.129099444874E+02 -0.710542735760E-14 -0.129099444874E+02 -0.258198889747E+02 -0.387298334621E+02  0.516397779494E+02
  0.516397779494E+02  0.516397779494E+02  0.516397779494E+02  0.516397779494E+02  0.516397779494E+02  0.516397779494E+02 -0.387298334621E+02
 -0.258198889747E+02 -0.129099444874E+02 -0.710542735760E-14  0.129099444874E+02  0.258198889747E+02  0.387298334621E+02 -0.387298334621E+02
 -0.258198889747E+02 -0.129099444874E+02 -0.142108547152E-13  0.129099444874E+02  0.258198889747E+02  0.387298334621E+02 -0.387298334621E+02
 -0.258198889747E+02 -0.129099444874E+02 -0.710542735760E-14  0.129099444874E+02  0.258198889747E+02  0.387298334621E+02 -0.387298334621E+02
 -0.258198889747E+02 -0.129099444874E+02 -0.710542735760E-14  0.129099444874E+02  0.258198889747E+02  0.387298334621E+02 -0.387298334621E+02
 -0.258198889747E+02 -0.129099444874E+02 -0.710542735760E-14  0.129099444874E+02  0.258198889747E+02  0.387298334621E+02 -0.387298334621E+02
 -0.258198889747E+02 -0.129099444874E+02  0.000000000000E+00  0.129099444874E+02  0.258198889747E+02  0.387298334621E+02 -0.387298334621E+02
 -0.258198889747E+02 -0.129099444874E+02 -0.142108547152E-13  0.129099444874E+02  0.258198889747E+02  0.387298334621E+02  0.516397779494E+02
  0.516397779494E+02  0.516397779494E+02  0.516397779494E+02  0.516397779494E+02  0.516397779494E+02  0.516397779494E+02  0.516397779494E+02
  0.516397779494E+02  0.516397779494E+02  0.516397779494E+02  0.516397779494E+02  0.516397779494E+02  0.516397779494E+02  0.516397779494E+02
  0.516397779494E+02  0.516397779494E+02  0.516397779494E+02  0.516397779494E+02  0.516397779494E+02  0.516397779494E+02
  0.516397779494E+02  0.516397779494E+02  0.516397779494E+02  0.516397779494E+02  0.516397779494E+02  0.516397779494E+02  0.516397779494E+02
  0.516397779494E+02  0.516397779494E+02  0.387298334621E+02  0.258198889747E+02  0.129099444874E+02  0.115776702060E-03  0.115776702060E-03
  0.115776702060E-03  0.115776702060E-03  0.115776702060E-03  0.115776702060E-03  0.115776702060E-03  0.115776702060E-03  0.115776702060E-03
  0.129099444874E+02  0.258198889747E+02  0.387298334621E+02  0.387298334621E+02  0.387298334621E+02  0.387298334621E+02  0.387298334621E+02
  0.387298334621E+02  0.387298334621E+02  0.387298334621E+02  0.258198889747E+02  0.258198889747E+02  0.258198889747E+02  0.258198889747E+02
  0.258198889747E+02  0.258198889747E+02  0.258198889747E+02  0.129099444874E+02  0.129099444874E+02  0.129099444874E+02  0.129099444874E+02
  0.129099444874E+02  0.129099444874E+02  0.129099444874E+02  0.115776702060E-03  0.115776702060E-03  0.115776702060E-03  0.115776702060E-03
  0.115776702060E-03  0.115776702060E-03  0.115776702060E-03  0.115776702060E-03  0.129099444874E+02  0.258198889747E+02  0.387298334621E+02
  0.516397779494E+02  0.516397779494E+02  0.516397779494E+02  0.516397779494E+02  0.516397779494E+02  0.516397779494E+02  0.516397779494E+02
  0.516397779494E+02  0.387298334621E+02  0.258198889747E+02  0.129099444874E+02  0.387298334621E+02  0.258198889747E+02  0.129099444874E+02
  0.387298334621E+02  0.258198889747E+02  0.129099444874E+02  0.387298334621E+02  0.258198889747E+02  0.129099444874E+02  0.387298334621E+02
  0.258198889747E+02  0.129099444874E+02  0.387298334621E+02  0.258198889747E+02  0.129099444874E+02  0.387298334621E+02  0.258198889747E+02
  0.129099444874E+02  0.115776702060E-03  0.115776702060E-03  0.115776702060E-03  0.115776702060E-03  0.115776702060E-03  0.115776702060E-03
  0.115776702060E-03  0.115776702060E-03  0.115776702060E-03  0.115776702060E-03  0.115776702060E-03  0.115776702060E-03  0.115776702060E-03
  0.115776702060E-03  0.115776702060E-03  0.516397779494E+02  0.516397779494E+02  0.516397779494E+02  0.516397779494E+02  0.516397779494E+02
  0.516397779494E+02  0.516397779494E+02  0.516397779494E+02  0.129099444874E+02  0.258198889747E+02  0.387298334621E+02  0.387298334621E+02
  0.387298334621E+02  0.387298334621E+02  0.387298334621E+02  0.387298334621E+02  0.387298334621E+02  0.387298334621E+02  0.258198889747E+02
  0.258198889747E+02  0.258198889747E+02  0.258198889747E+02  0.258198889747E+02  0.258198889747E+02  0.258198889747E+02  0.129099444874E+02
  0.129099444874E+02  0.129099444874E+02  0.129099444874E+02  0.129099444874E+02  0.129099444874E+02  0.129099444874E+02  0.516397779494E+02
  0.516397779494E+02  0.516397779494E+02  0.516397779494E+02  0.516397779494E+02  0.516397779494E+02  0.516397779494E+02  0.516397779494E+02
  0.516397779494E+02  0.516397779494E+02  0.516397779494E+02  0.516397779494E+02  0.516397779494E+02  0.516397779494E+02  0.516397779494E+02
  0.516397779494E+02  0.516397779494E+02  0.516397779494E+02  0.516397779494E+02  0.516397779494E+02  0.516397779494E+02  0.516397779494E+02
  0.516397779494E+02  0.516397779494E+02  0.516397779494E+02  0.516397779494E+02  0.516397779494E+02  0.516397779494E+02  0.516397779494E+02
  0.516397779494E+02  0.516397779494E+02  0.516397779494E+02  0.516397779494E+02  0.516397779494E+02  0.516397779494E+02  0.516397779494E+02
  0.516397779494E+02  0.516397779494E+02  0.516397779494E+02  0.516397779494E+02  0.516397779494E+02  0.516397779494E+02  0.516397779494E+02
  0.516397779494E+02  0.516397779494E+02  0.516397779494E+02  0.516397779494E+02  0.516397779494E+02  0.516397779494E+02  0.516397779494E+02
  0.516397779494E+02  0.516397779494E+02  0.516397779494E+02  0.516397779494E+02  0.516397779494E+02  0.516397779494E+02  0.129099444874E+02
  0.258198889747E+02  0.387298334621E+02  0.129099444874E+02  0.258198889747E+02  0.387298334621E+02  0.129099444874E+02  0.258198889747E+02
  0.387298334621E+02  0.129099444874E+02  0.258198889747E+02  0.387298334621E+02  0.129099444874E+02  0.258198889747E+02  0.387298334621E+02
  0.129099444874E+02  0.258198889747E+02  0.387298334621E+02  0.129099444874E+02  0.258198889747E+02  0.387298334621E+02
 -0.516397779494E+02 -0.387298334621E+02 -0.258198889747E+02 -0.129099444874E+02  0.000000000000E+00  0.129099444874E+02  0.258198889747E+02
  0.387298334621E+02  0.516397779494E+02  0.516397779494E+02  0.516397779494E+02  0.516397779494E+02  0.516397783092E+02  0.387298337286E+02
  0.258198884641E+02  0.129099434433E+02 -0.284841418241E-05 -0.129099503238E+02 -0.258198981157E+02 -0.387298399021E+02 -0.516397809430E+02
 -0.516397779494E+02 -0.516397779494E+02 -0.516397779494E+02 -0.387298334621E+02 -0.258198889747E+02 -0.129099444874E+02 -0.142108547152E-13
  0.129099444874E+02  0.258198889747E+02  0.387298334621E+02 -0.387298334621E+02 -0.258198889747E+02 -0.129099444874E+02 -0.710542735760E-14
  0.129099444874E+02  0.258198889747E+02  0.387298334621E+02 -0.387298334621E+02 -0.258198889747E+02 -0.129099444874E+02  0.000000000000E+00
  0.129099444874E+02  0.258198889747E+02  0.387298334621E+02 -0.516397772286E+02 -0.516397756504E+02 -0.516397762679E+02 -0.516397765482E+02
 -0.516397768929E+02 -0.516397770007E+02 -0.516397766488E+02 -0.516397727863E+02 -0.516397779494E+02 -0.516397779494E+02 -0.516397779494E+02
 -0.516397779494E+02 -0.516397779494E+02 -0.516397779494E+02 -0.516397779494E+02 -0.516397779494E+02 -0.516397779494E+02 -0.516397779494E+02
 -0.516397779494E+02 -0.516397779494E+02 -0.516397779494E+02 -0.516397779494E+02 -0.516397779494E+02 -0.516397779494E+02 -0.516397779494E+02
 -0.516397779494E+02 -0.516397779494E+02 -0.516397779494E+02 -0.516397779494E+02 -0.516397779494E+02 -0.516397779494E+02 -0.516397779494E+02
 -0.516397779494E+02 -0.516397779494E+02 -0.516397779494E+02 -0.516397779494E+02 -0.516397779494E+02 -0.516397779494E+02 -0.516397779494E+02
 -0.516397779494E+02 -0.387298299272E+02 -0.258198807626E+02 -0.129099288762E+02  0.267820506510E-04  0.129101095949E+02  0.258199538734E+02
  0.387298143075E+02  0.516397295583E+02  0.516397360902E+02  0.516397610570E+02  0.516397743489E+02  0.516397782936E+02  0.516397794160E+02
  0.516397798024E+02  0.516397791235E+02  0.516397779494E+02  0.516397779494E+02  0.516397779494E+02  0.516397779494E+02  0.516397779494E+02
  0.516397779494E+02  0.516397779494E+02  0.516397779494E+02  0.516397779494E+02  0.516397779494E+02  0.516397779494E+02  0.516397779494E+02
  0.516397779494E+02  0.516397779494E+02  0.516397779494E+02  0.516397779494E+02  0.516397779494E+02  0.516397779494E+02  0.516397779494E+02
  0.516397779494E+02  0.516397779494E+02  0.516397779494E+02  0.516397779494E+02  0.516397779494E+02  0.516397779494E+02  0.516397779494E+02
  0.516397779494E+02  0.516397779494E+02  0.516397779494E+02  0.516397779494E+02  0.516397779494E+02  0.516397779494E+02 -0.387298334621E+02
 -0.258198889747E+02 -0.129099444874E+02  0.000000000000E+00  0.129099444874E+02  0.258198889747E+02  0.387298334621E+02 -0.387298334621E+02
 -0.387298334621E+02 -0.387298334621E+02 -0.387298334621E+02 -0.387298334621E+02 -0.387298334621E+02 -0.387298334621E+02 -0.258198889747E+02
 -0.258198889747E+02 -0.258198889747E+02 -0.258198889747E+02 -0.258198889747E+02 -0.258198889747E+02 -0.258198889747E+02 -0.129099444874E+02
 -0.129099444874E+02 -0.129099444874E+02 -0.129099444874E+02 -0.129099444874E+02 -0.129099444874E+02 -0.129099444874E+02 -0.710542735760E-14
 -0.142108547152E-13 -0.710542735760E-14 -0.710542735760E-14 -0.710542735760E-14  0.000000000000E+00 -0.142108547152E-13  0.129099444874E+02
  0.129099444874E+02  0.129099444874E+02  0.129099444874E+02  0.129099444874E+02  0.129099444874E+02  0.129099444874E+02  0.258198889747E+02
  0.258198889747E+02  0.258198889747E+02  0.258198889747E+02  0.258198889747E+02  0.258198889747E+02  0.258198889747E+02  0.387298334621E+02
  0.387298334621E+02  0.387298334621E+02  0.387298334621E+02  0.387298334621E+02  0.387298334621E+02  0.387298334621E+02 -0.387298334621E+02
 -0.387298334621E+02 -0.387298334621E+02 -0.258198889747E+02 -0.258198889747E+02 -0.258198889747E+02 -0.129099444874E+02 -0.129099444874E+02
 -0.129099444874E+02 -0.142108547152E-13 -0.710542735760E-14  0.000000000000E+00  0.129099444874E+02  0.129099444874E+02  0.129099444874E+02
  0.258198889747E+02  0.258198889747E+02  0.258198889747E+02  0.387298334621E+02  0.387298334621E+02  0.387298334621E+02
  0.714286639094E+00  0.714286712020E+00  0.714286605134E+00  0.714286027098E+00  0.714284981292E+00  0.714283910674E+00  0.714283329902E+00
  0.714283669856E+00  0.714284132330E+00  0.714283492200E+00  0.714282671492E+00  0.714282623782E+00  0.714282993896E+00  0.714282718149E+00
  0.714283194642E+00  0.714284290933E+00  0.714286026570E+00  0.714287190080E+00  0.714287370048E+00  0.714287152102E+00  0.714286839896E+00
  0.714287040157E+00  0.714286996843E+00  0.714286745079E+00  0.714286989994E+00  0.714286958566E+00  0.714286196851E+00  0.714285052197E+00
  0.714283733178E+00  0.714282756935E+00  0.714282589712E+00  0.714287308310E+00  0.714287468729E+00  0.714286739268E+00  0.714285411867E+00
  0.714283752058E+00  0.714282298273E+00  0.714281954538E+00  0.714287530888E+00  0.714287697919E+00  0.714287114424E+00  0.714285730803E+00
  0.714283845217E+00  0.714282285970E+00  0.714281952231E+00  0.714287435307E+00  0.714289500158E+00  0.714293979107E+00  0.714300414075E+00
  0.714304515280E+00  0.714303754067E+00  0.714300580837E+00  0.714297768554E+00  0.714296516746E+00  0.714295240222E+00  0.714293337757E+00
  0.714293089084E+00  0.714294369475E+00  0.714295775060E+00  0.714295653097E+00  0.714293651867E+00  0.714290726898E+00  0.714288404476E+00
  0.714287124167E+00  0.714287305414E+00  0.714287694641E+00  0.714288221639E+00  0.714288860763E+00  0.714290180523E+00  0.714290964113E+00
  0.714291027780E+00  0.714293022212E+00  0.714295475574E+00  0.714294531049E+00  0.714296570828E+00  0.714300540353E+00  0.714296865631E+00
  0.714297406686E+00  0.714303576882E+00  0.714296156485E+00  0.714297287831E+00  0.714302364340E+00  0.714295329418E+00  0.714296758253E+00
  0.714299067259E+00  0.714296706932E+00  0.714297718496E+00  0.714282532722E+00  0.714247171460E+00  0.714232942107E+00  0.714241962563E+00
  0.714254810959E+00  0.714255719138E+00  0.714249680308E+00  0.714243713905E+00  0.714237822795E+00  0.714245113588E+00  0.714264329916E+00
  0.714276015036E+00  0.714281488316E+00  0.714260662363E+00  0.714257350373E+00  0.714258857153E+00  0.714262621804E+00  0.714269097438E+00
  0.714275632123E+00  0.714280671132E+00  0.714283118892E+00  0.714254408309E+00  0.714255127045E+00  0.714260405632E+00  0.714256525024E+00
  0.714254202252E+00  0.714257400129E+00  0.714263724267E+00  0.714270266186E+00  0.714279133045E+00  0.714281981187E+00  0.714253596496E+00
  0.714251778756E+00  0.714251339870E+00  0.714256507758E+00  0.714264965413E+00  0.714277060603E+00  0.714281211566E+00  0.714251140888E+00
  0.714249424887E+00  0.714240269778E+00  0.714248663541E+00  0.714263504568E+00  0.714275900156E+00  0.714281037781E+00  0.714293471625E+00
  0.714291994769E+00  0.714287095752E+00  0.714275196368E+00  0.714262239432E+00  0.714257197050E+00  0.714259883005E+00  0.714287348120E+00
  0.714288769409E+00  0.714290995850E+00  0.714294380027E+00  0.714296577669E+00  0.714295895819E+00  0.714295275193E+00  0.714287205102E+00
  0.714288899649E+00  0.714291930790E+00  0.714292896175E+00  0.714294938709E+00  0.714294138659E+00  0.714293515165E+00  0.714286356278E+00
  0.714288038036E+00  0.714289304570E+00  0.714289430943E+00  0.714288283437E+00  0.714289233954E+00  0.714286561179E+00  0.714285103081E+00
  0.714285786725E+00  0.714282878109E+00  0.714280773781E+00  0.714278020822E+00  0.714271227606E+00  0.714270790614E+00  0.714283594946E+00
  0.714281245784E+00  0.714275841118E+00  0.714271076798E+00  0.714267445799E+00  0.714251602452E+00  0.714255658648E+00  0.714282364722E+00
  0.714279396689E+00  0.714271761413E+00  0.714262192319E+00  0.714258104743E+00  0.714250222027E+00  0.714256878780E+00  0.714282153435E+00
  0.714279005872E+00  0.714271225132E+00  0.714264623028E+00  0.714257815349E+00  0.714254636694E+00  0.714257310663E+00  0.714296212332E+00
  0.714294539898E+00  0.714294198703E+00  0.714294768916E+00  0.714293397313E+00  0.714291066875E+00  0.714283479532E+00  0.714279803137E+00
  0.714282197359E+00  0.714268854954E+00  0.714268687766E+00  0.714268810891E+00  0.714259382728E+00  0.714267679531E+00  0.714261097551E+00
  0.714251800087E+00  0.714259887920E+00  0.714261581550E+00  0.714253393009E+00  0.714256275840E+00  0.714260756884E+00
  0.499999085357E+00  0.499999112472E+00  0.499999236407E+00  0.499999725382E+00  0.500000613486E+00  0.500001499841E+00  0.500002058583E+00
  0.500001803498E+00  0.500001203642E+00  0.500001948817E+00  0.500002579957E+00  0.500002769498E+00  0.500002399418E+00  0.500003412710E+00
  0.500002823460E+00  0.500001632032E+00  0.499999621205E+00  0.499998299991E+00  0.499998093177E+00  0.499998351726E+00  0.499998950717E+00
  0.499998776383E+00  0.499998797168E+00  0.499998956866E+00  0.499998441283E+00  0.499998456647E+00  0.499999123295E+00  0.500000631664E+00
  0.500002382795E+00  0.500004566245E+00  0.500003804159E+00  0.499998118711E+00  0.499997943491E+00  0.499998532717E+00  0.500000261194E+00
  0.500002271545E+00  0.500003942851E+00  0.500005594005E+00  0.499997786101E+00  0.499997666190E+00  0.499998253884E+00  0.499999780293E+00
  0.500002173185E+00  0.500003825552E+00  0.500004834211E+00  0.499997785885E+00  0.499995181000E+00  0.499990151012E+00  0.499986486818E+00
  0.499990679080E+00  0.499997835573E+00  0.500004360254E+00  0.500006478004E+00  0.500006509996E+00  0.500005159596E+00  0.500004265153E+00
  0.500002971850E+00  0.500002713613E+00  0.499999962982E+00  0.499995209933E+00  0.499992430716E+00  0.499993892088E+00  0.499996153308E+00
  0.499998069229E+00  0.499997748647E+00  0.499997360798E+00  0.499996566146E+00  0.499995148854E+00  0.499992336982E+00  0.499993089105E+00
  0.499992635540E+00  0.499989592687E+00  0.499988017494E+00  0.499989014416E+00  0.499985844048E+00  0.499985067275E+00  0.499992407152E+00
  0.499990836613E+00  0.499989001161E+00  0.499999651329E+00  0.499999564642E+00  0.499999272563E+00  0.500003691649E+00  0.500005571307E+00
  0.500007524659E+00  0.500012232826E+00  0.500015367428E+00  0.499995827878E+00  0.499943467072E+00  0.499918409327E+00  0.499949443366E+00
  0.499973749517E+00  0.499988205631E+00  0.499995380244E+00  0.500009075238E+00  0.500025200595E+00  0.500043533487E+00  0.500027997452E+00
  0.500013888784E+00  0.500005333186E+00  0.499997556310E+00  0.500008462544E+00  0.500016837615E+00  0.500019874176E+00  0.500018228271E+00
  0.500012264797E+00  0.500005921752E+00  0.500002684331E+00  0.499988086336E+00  0.499989073161E+00  0.499991851210E+00  0.499998894168E+00
  0.500017858350E+00  0.500029165294E+00  0.500026614266E+00  0.500022690812E+00  0.500009993336E+00  0.500005167352E+00  0.499993335389E+00
  0.500013983225E+00  0.500037146969E+00  0.500042592537E+00  0.500032676605E+00  0.500014163548E+00  0.500006942499E+00  0.499991720949E+00
  0.500009756689E+00  0.500032643560E+00  0.500049341385E+00  0.500032935515E+00  0.500015541508E+00  0.500006584828E+00  0.500003756717E+00
  0.500004093277E+00  0.500003401815E+00  0.499999356065E+00  0.499992021354E+00  0.499990418518E+00  0.499993443089E+00  0.499997619732E+00
  0.499994752474E+00  0.499992417086E+00  0.499988965787E+00  0.499993073505E+00  0.499999147557E+00  0.500003420145E+00  0.499997780797E+00
  0.499994470322E+00  0.499992229555E+00  0.499989389789E+00  0.499995719111E+00  0.500002845152E+00  0.500005658928E+00  0.499998601764E+00
  0.499995177289E+00  0.499995203173E+00  0.499995946363E+00  0.500000645225E+00  0.500004815446E+00  0.500007729412E+00  0.500001339299E+00
  0.500001700028E+00  0.500007048785E+00  0.500007392722E+00  0.500011372990E+00  0.500009060567E+00  0.500002963390E+00  0.500002868455E+00
  0.500008148574E+00  0.500019978931E+00  0.500024499331E+00  0.500024462904E+00  0.500011341066E+00  0.499990379204E+00  0.500004940665E+00
  0.500009866275E+00  0.500028139990E+00  0.500028776498E+00  0.500028271471E+00  0.500015303954E+00  0.499994527118E+00  0.500004785459E+00
  0.500010200177E+00  0.500022630626E+00  0.500026085754E+00  0.500026770291E+00  0.500015478282E+00  0.500001293330E+00  0.500011544786E+00
  0.500009328567E+00  0.500006369923E+00  0.500022251172E+00  0.500014686437E+00  0.500006856138E+00  0.500003814428E+00  0.500005285382E+00
  0.500006415167E+00  0.499949553312E+00  0.499978439453E+00  0.499991950560E+00  0.499895022846E+00  0.499933754667E+00  0.499976247619E+00
  0.499938891564E+00  0.499959171076E+00  0.499974326632E+00  0.499971494866E+00  0.499975219371E+00  0.499983504126E+00
  0.100000040620E+01  0.100000041924E+01  0.100000036777E+01  0.100000012375E+01  0.999999693635E+00  0.999999250095E+00  0.999999014675E+00
  0.999999143844E+00  0.999999333892E+00  0.999999075507E+00  0.999998746479E+00  0.999998710330E+00  0.999998859469E+00  0.999998749131E+00
  0.999998954809E+00  0.999999411900E+00  0.100000013266E+01  0.100000063512E+01  0.100000070313E+01  0.100000060692E+01  0.100000047665E+01
  0.100000056147E+01  0.100000054495E+01  0.100000045484E+01  0.100000055433E+01  0.100000054007E+01  0.100000026692E+01  0.999999762507E+00
  0.999999167836E+00  0.999998666895E+00  0.999998645121E+00  0.100000068435E+01  0.100000074544E+01  0.100000048474E+01  0.999999899610E+00
  0.999999201832E+00  0.999998569705E+00  0.999998295599E+00  0.100000078549E+01  0.100000084906E+01  0.100000060964E+01  0.100000002596E+01
  0.999999200642E+00  0.999998557210E+00  0.999998353550E+00  0.100000078322E+01  0.100000170126E+01  0.100000358314E+01  0.100000634926E+01
  0.100000789218E+01  0.100000744050E+01  0.100000605454E+01  0.100000487378E+01  0.100000443802E+01  0.100000390715E+01  0.100000313080E+01
  0.100000298106E+01  0.100000349319E+01  0.100000409994E+01  0.100000415339E+01  0.100000343652E+01  0.100000222853E+01  0.100000124866E+01
  0.100000065299E+01  0.100000071963E+01  0.100000087046E+01  0.100000111066E+01  0.100000142949E+01  0.100000203794E+01  0.100000227472E+01
  0.100000236724E+01  0.100000329883E+01  0.100000423144E+01  0.100000387380E+01  0.100000487951E+01  0.100000642365E+01  0.100000480557E+01
  0.100000539724E+01  0.100000765503E+01  0.100000442808E+01  0.100000518269E+01  0.100000700438E+01  0.100000395868E+01  0.100000465296E+01
  0.100000554725E+01  0.100000454520E+01  0.100000502040E+01  0.999999483278E+00  0.999986029634E+00  0.999980243557E+00  0.999982789397E+00
  0.999987288605E+00  0.999987797369E+00  0.999985329066E+00  0.999982839331E+00  0.999980384123E+00  0.999982687242E+00  0.999990668850E+00
  0.999995618529E+00  0.999998094731E+00  0.999989758053E+00  0.999988318443E+00  0.999988683700E+00  0.999990202485E+00  0.999992844980E+00
  0.999995647773E+00  0.999997823181E+00  0.999998885484E+00  0.999987257558E+00  0.999987512526E+00  0.999989558354E+00  0.999988023748E+00
  0.999986823501E+00  0.999987934436E+00  0.999990559198E+00  0.999993328878E+00  0.999997062847E+00  0.999998319935E+00  0.999986657432E+00
  0.999985541659E+00  0.999985065904E+00  0.999987320064E+00  0.999990954274E+00  0.999996141060E+00  0.999997985459E+00  0.999985677472E+00
  0.999984571011E+00  0.999981046869E+00  0.999983949336E+00  0.999990254477E+00  0.999995618613E+00  0.999997908433E+00  0.100000316364E+01
  0.100000256318E+01  0.100000058814E+01  0.999995907965E+00  0.999990839244E+00  0.999988665341E+00  0.999989454583E+00  0.100000072787E+01
  0.100000143913E+01  0.100000236909E+01  0.100000385752E+01  0.100000463900E+01  0.100000429837E+01  0.100000390662E+01  0.100000065674E+01
  0.100000143865E+01  0.100000263802E+01  0.100000319894E+01  0.100000391592E+01  0.100000360320E+01  0.100000318299E+01  0.100000031218E+01
  0.100000105586E+01  0.100000155627E+01  0.100000158726E+01  0.100000128068E+01  0.100000144931E+01  0.100000047020E+01  0.999999700055E+00
  0.999999898549E+00  0.999998640014E+00  0.999997729238E+00  0.999996586045E+00  0.999994191497E+00  0.999994226359E+00  0.999999065167E+00
  0.999997949272E+00  0.999995537864E+00  0.999993280036E+00  0.999991839721E+00  0.999986405465E+00  0.999988372448E+00  0.999998504249E+00
  0.999997231596E+00  0.999993565714E+00  0.999989913893E+00  0.999988180388E+00  0.999985475597E+00  0.999988174113E+00  0.999998427772E+00
  0.999997019295E+00  0.999993512820E+00  0.999990766802E+00  0.999988101358E+00  0.999987046594E+00  0.999988341551E+00  0.100000438427E+01
  0.100000382838E+01  0.100000351381E+01  0.100000399054E+01  0.100000338248E+01  0.100000230001E+01  0.100000007026E+01  0.999998563654E+00
  0.999998888034E+00  0.999994215236E+00  0.999993832867E+00  0.999993533121E+00  0.999990374017E+00  0.999993071627E+00  0.999990337836E+00
  0.999986486351E+00  0.999989368493E+00  0.999989939890E+00  0.999986664906E+00  0.999987911813E+00  0.999989586687E+00
 -0.808158889379E-03 -0.859695257211E-03 -0.764728488310E-03 -0.434124950093E-03 -0.169455777714E-03 -0.694029173695E-04 -0.442665192905E-04
 -0.133212376288E-03 -0.207101100602E-03 -0.157466153950E-03 -0.502678776478E-04  0.126506692140E-03  0.409553144839E-03  0.331605884211E-03
  0.188872317525E-03 -0.774518265891E-05 -0.184592856739E-03 -0.320446238109E-03 -0.809440811332E-03 -0.167589608995E-02 -0.212990464074E-02
 -0.811096789041E-03 -0.660109224057E-03 -0.720248548581E-03 -0.685845609276E-03 -0.633819565381E-03 -0.410398319972E-03 -0.198712536645E-03
 -0.513344407457E-04 -0.407245719567E-05 -0.685482859139E-04 -0.551923250072E-03 -0.371932249917E-03 -0.270859824154E-03 -0.100525458504E-03
  0.120949315664E-04  0.623359050758E-04  0.588795583309E-04 -0.511116639774E-03 -0.225142612332E-03 -0.126559687453E-03 -0.376199830698E-04
  0.693961871112E-04  0.156577511190E-03  0.175356277744E-03 -0.263129138333E-02 -0.252037273006E-02 -0.210014186098E-02 -0.185738995286E-02
 -0.183062096044E-02 -0.222606771876E-02 -0.195525543740E-02 -0.133691663864E-02 -0.468040861270E-03 -0.187080550589E-03 -0.129323985336E-03
 -0.125045548254E-03 -0.118960048203E-03 -0.177197728180E-03 -0.281474296383E-03 -0.459662131931E-03 -0.574442285980E-03 -0.690889626003E-03
 -0.770484097840E-03 -0.738420734045E-03 -0.692976331420E-03 -0.779188450204E-03 -0.660430919417E-03 -0.577526648435E-03 -0.786335671846E-03
 -0.599684324005E-03 -0.568275444756E-03 -0.708163562560E-03 -0.462999477210E-03 -0.458777785327E-03 -0.654347805665E-03 -0.328854537685E-03
 -0.392101352211E-03 -0.622112612003E-03 -0.212437927692E-03 -0.300006352182E-03 -0.622015921709E-03 -0.136943630848E-03 -0.231496952556E-03
 -0.511484800712E-03 -0.682418274749E-03 -0.555889167281E-03 -0.301882315457E-03  0.122424441695E-03  0.107879348003E-02  0.124931685036E-02
  0.825603137991E-03  0.118405553255E-02  0.340021926255E-02  0.370901615930E-02  0.303357426473E-02  0.228391824826E-02  0.159257024973E-02
  0.122665461003E-02  0.808443094459E-03  0.728077189372E-04  0.243543362278E-03  0.326306974744E-03  0.247175664581E-03  0.903659104954E-04
 -0.897808585799E-04 -0.249779321339E-03 -0.255618172900E-03  0.324590783472E-03  0.118294709624E-03  0.883424909202E-04  0.113187695395E-03
  0.182155551422E-03  0.133040102543E-03  0.625335076827E-04 -0.243325126563E-04 -0.172634558821E-03 -0.202166239524E-03  0.269245477367E-03
  0.364656772774E-03  0.298135707740E-03  0.248140875608E-03  0.135386498688E-03 -0.411134328509E-04 -0.612758774456E-04  0.749838951504E-03
  0.879252562257E-03  0.100386841020E-02  0.771821136311E-03  0.500012942371E-03  0.295061685905E-03  0.143696387871E-03 -0.751037656859E-04
 -0.473514753959E-04 -0.276702388851E-04 -0.450323587220E-05  0.240954228439E-04  0.515113383363E-04  0.709175372736E-04 -0.973378716047E-03
 -0.889587188608E-03 -0.860205344590E-03 -0.650006135802E-03 -0.588681853058E-03 -0.325533446744E-03 -0.196944827799E-03 -0.983916382884E-03
 -0.940237324282E-03 -0.858372955147E-03 -0.623515447800E-03 -0.548225424720E-03 -0.336953243716E-03 -0.184695097068E-03 -0.534812420150E-03
 -0.522048341052E-03 -0.719522242967E-03 -0.414545970483E-03 -0.371356045878E-03 -0.232310205840E-03 -0.114309129657E-03 -0.193661319027E-03
 -0.196977701513E-03 -0.219306951887E-03 -0.178177865565E-03 -0.115940526646E-03 -0.649396982917E-04 -0.210993236119E-04 -0.636782216267E-04
 -0.971412053214E-04 -0.947149654352E-04 -0.102183929596E-03 -0.752949848755E-04 -0.408118364944E-04  0.456395239094E-05 -0.346468498621E-04
 -0.665820099192E-04 -0.492778240986E-04 -0.927942337329E-04 -0.556448498231E-04 -0.375274759646E-04  0.922183023406E-05 -0.738746744112E-04
 -0.699285956755E-04 -0.213344849657E-04  0.657701316872E-06  0.192695385066E-04  0.239594365166E-04  0.335074820649E-04 -0.258127708876E-03
 -0.125443868752E-03 -0.568556236452E-04 -0.218279584630E-03 -0.955733282744E-04 -0.391633679788E-04 -0.115332641697E-03 -0.474162827810E-04
 -0.282310288598E-04  0.151258837198E-04  0.820387610527E-05 -0.108893628013E-05  0.193717307198E-03  0.639865742051E-04  0.242086444771E-04
  0.303745605236E-03  0.774545977781E-04  0.449096452027E-04  0.247763003855E-03  0.889766441273E-04  0.632342224237E-04
 -0.150622536538E-03 -0.165155742266E-03 -0.148085250714E-03 -0.744267777802E-04 -0.144907880418E-04  0.105578002546E-04  0.201427565603E-04
 -0.340254455626E-05 -0.202739356594E-04  0.113889021915E-05  0.337716674982E-04  0.875825758488E-04  0.149519037006E-03  0.971619714552E-04